atoms.lammpsdata (written by ASE) 

54 	 atoms 
2  atom types
0.0      8.4599999999999991  xlo xhi
0.0      8.4599999999999991  ylo yhi
0.0      8.4599999999999991  zlo zhi


Atoms 

     1   1                       0                       0                       0
     2   2      1.4099999999999999      1.4099999999999999      1.4099999999999999
     3   1                       0                       0      2.8199999999999998
     4   2      1.4099999999999999      1.4099999999999999      4.2299999999999995
     5   1                       0                       0      5.6399999999999997
     6   2      1.4099999999999999      1.4099999999999999      7.0499999999999998
     7   1                       0      2.8199999999999998                       0
     8   2      1.4099999999999999      4.2299999999999995      1.4099999999999999
     9   1                       0      2.8199999999999998      2.8199999999999998
    10   2      1.4099999999999999      4.2299999999999995      4.2299999999999995
    11   1                       0      2.8199999999999998      5.6399999999999997
    12   2      1.4099999999999999      4.2299999999999995      7.0499999999999998
    13   1                       0      5.6399999999999997                       0
    14   2      1.4099999999999999      7.0499999999999998      1.4099999999999999
    15   1                       0      5.6399999999999997      2.8199999999999998
    16   2      1.4099999999999999      7.0499999999999998      4.2299999999999995
    17   1                       0      5.6399999999999997      5.6399999999999997
    18   2      1.4099999999999999      7.0499999999999998      7.0499999999999998
    19   1      2.8199999999999998                       0                       0
    20   2      4.2299999999999995      1.4099999999999999      1.4099999999999999
    21   1      2.8199999999999998                       0      2.8199999999999998
    22   2      4.2299999999999995      1.4099999999999999      4.2299999999999995
    23   1      2.8199999999999998                       0      5.6399999999999997
    24   2      4.2299999999999995      1.4099999999999999      7.0499999999999998
    25   1      2.8199999999999998      2.8199999999999998                       0
    26   2      4.2299999999999995      4.2299999999999995      1.4099999999999999
    27   1      2.8199999999999998      2.8199999999999998      2.8199999999999998
    28   2      4.2299999999999995      4.2299999999999995      4.2299999999999995
    29   1      2.8199999999999998      2.8199999999999998      5.6399999999999997
    30   2      4.2299999999999995      4.2299999999999995      7.0499999999999998
    31   1      2.8199999999999998      5.6399999999999997                       0
    32   2      4.2299999999999995      7.0499999999999998      1.4099999999999999
    33   1      2.8199999999999998      5.6399999999999997      2.8199999999999998
    34   2      4.2299999999999995      7.0499999999999998      4.2299999999999995
    35   1      2.8199999999999998      5.6399999999999997      5.6399999999999997
    36   2      4.2299999999999995      7.0499999999999998      7.0499999999999998
    37   1      5.6399999999999997                       0                       0
    38   2      7.0499999999999998      1.4099999999999999      1.4099999999999999
    39   1      5.6399999999999997                       0      2.8199999999999998
    40   2      7.0499999999999998      1.4099999999999999      4.2299999999999995
    41   1      5.6399999999999997                       0      5.6399999999999997
    42   2      7.0499999999999998      1.4099999999999999      7.0499999999999998
    43   1      5.6399999999999997      2.8199999999999998                       0
    44   2      7.0499999999999998      4.2299999999999995      1.4099999999999999
    45   1      5.6399999999999997      2.8199999999999998      2.8199999999999998
    46   2      7.0499999999999998      4.2299999999999995      4.2299999999999995
    47   1      5.6399999999999997      2.8199999999999998      5.6399999999999997
    48   2      7.0499999999999998      4.2299999999999995      7.0499999999999998
    49   1      5.6399999999999997      5.6399999999999997                       0
    50   2      7.0499999999999998      7.0499999999999998      1.4099999999999999
    51   1      5.6399999999999997      5.6399999999999997      2.8199999999999998
    52   2      7.0499999999999998      7.0499999999999998      4.2299999999999995
    53   1      5.6399999999999997      5.6399999999999997      5.6399999999999997
    54   2      7.0499999999999998      7.0499999999999998      7.0499999999999998
