atoms.lammpsdata (written by ASE) 

2000 	 atoms 
2  atom types
0.0      28.199999999999999  xlo xhi
0.0      28.199999999999999  ylo yhi
0.0      28.199999999999999  zlo zhi


Atoms 

     1   1                       0                       0                       0
     2   2      1.4099999999999999      1.4099999999999999      1.4099999999999999
     3   1                       0                       0      2.8199999999999998
     4   2      1.4099999999999999      1.4099999999999999      4.2299999999999995
     5   1                       0                       0      5.6399999999999997
     6   2      1.4099999999999999      1.4099999999999999      7.0499999999999998
     7   1                       0                       0      8.4599999999999991
     8   2      1.4099999999999999      1.4099999999999999      9.8699999999999992
     9   1                       0                       0      11.279999999999999
    10   2      1.4099999999999999      1.4099999999999999                   12.69
    11   1                       0                       0                    14.1
    12   2      1.4099999999999999      1.4099999999999999                   15.51
    13   1                       0                       0      16.919999999999998
    14   2      1.4099999999999999      1.4099999999999999      18.329999999999998
    15   1                       0                       0      19.739999999999998
    16   2      1.4099999999999999      1.4099999999999999      21.149999999999999
    17   1                       0                       0      22.559999999999999
    18   2      1.4099999999999999      1.4099999999999999      23.969999999999999
    19   1                       0                       0      25.379999999999999
    20   2      1.4099999999999999      1.4099999999999999      26.789999999999999
    21   1                       0      2.8199999999999998                       0
    22   2      1.4099999999999999      4.2299999999999995      1.4099999999999999
    23   1                       0      2.8199999999999998      2.8199999999999998
    24   2      1.4099999999999999      4.2299999999999995      4.2299999999999995
    25   1                       0      2.8199999999999998      5.6399999999999997
    26   2      1.4099999999999999      4.2299999999999995      7.0499999999999998
    27   1                       0      2.8199999999999998      8.4599999999999991
    28   2      1.4099999999999999      4.2299999999999995      9.8699999999999992
    29   1                       0      2.8199999999999998      11.279999999999999
    30   2      1.4099999999999999      4.2299999999999995                   12.69
    31   1                       0      2.8199999999999998                    14.1
    32   2      1.4099999999999999      4.2299999999999995                   15.51
    33   1                       0      2.8199999999999998      16.919999999999998
    34   2      1.4099999999999999      4.2299999999999995      18.329999999999998
    35   1                       0      2.8199999999999998      19.739999999999998
    36   2      1.4099999999999999      4.2299999999999995      21.149999999999999
    37   1                       0      2.8199999999999998      22.559999999999999
    38   2      1.4099999999999999      4.2299999999999995      23.969999999999999
    39   1                       0      2.8199999999999998      25.379999999999999
    40   2      1.4099999999999999      4.2299999999999995      26.789999999999999
    41   1                       0      5.6399999999999997                       0
    42   2      1.4099999999999999      7.0499999999999998      1.4099999999999999
    43   1                       0      5.6399999999999997      2.8199999999999998
    44   2      1.4099999999999999      7.0499999999999998      4.2299999999999995
    45   1                       0      5.6399999999999997      5.6399999999999997
    46   2      1.4099999999999999      7.0499999999999998      7.0499999999999998
    47   1                       0      5.6399999999999997      8.4599999999999991
    48   2      1.4099999999999999      7.0499999999999998      9.8699999999999992
    49   1                       0      5.6399999999999997      11.279999999999999
    50   2      1.4099999999999999      7.0499999999999998                   12.69
    51   1                       0      5.6399999999999997                    14.1
    52   2      1.4099999999999999      7.0499999999999998                   15.51
    53   1                       0      5.6399999999999997      16.919999999999998
    54   2      1.4099999999999999      7.0499999999999998      18.329999999999998
    55   1                       0      5.6399999999999997      19.739999999999998
    56   2      1.4099999999999999      7.0499999999999998      21.149999999999999
    57   1                       0      5.6399999999999997      22.559999999999999
    58   2      1.4099999999999999      7.0499999999999998      23.969999999999999
    59   1                       0      5.6399999999999997      25.379999999999999
    60   2      1.4099999999999999      7.0499999999999998      26.789999999999999
    61   1                       0      8.4599999999999991                       0
    62   2      1.4099999999999999      9.8699999999999992      1.4099999999999999
    63   1                       0      8.4599999999999991      2.8199999999999998
    64   2      1.4099999999999999      9.8699999999999992      4.2299999999999995
    65   1                       0      8.4599999999999991      5.6399999999999997
    66   2      1.4099999999999999      9.8699999999999992      7.0499999999999998
    67   1                       0      8.4599999999999991      8.4599999999999991
    68   2      1.4099999999999999      9.8699999999999992      9.8699999999999992
    69   1                       0      8.4599999999999991      11.279999999999999
    70   2      1.4099999999999999      9.8699999999999992                   12.69
    71   1                       0      8.4599999999999991                    14.1
    72   2      1.4099999999999999      9.8699999999999992                   15.51
    73   1                       0      8.4599999999999991      16.919999999999998
    74   2      1.4099999999999999      9.8699999999999992      18.329999999999998
    75   1                       0      8.4599999999999991      19.739999999999998
    76   2      1.4099999999999999      9.8699999999999992      21.149999999999999
    77   1                       0      8.4599999999999991      22.559999999999999
    78   2      1.4099999999999999      9.8699999999999992      23.969999999999999
    79   1                       0      8.4599999999999991      25.379999999999999
    80   2      1.4099999999999999      9.8699999999999992      26.789999999999999
    81   1                       0      11.279999999999999                       0
    82   2      1.4099999999999999                   12.69      1.4099999999999999
    83   1                       0      11.279999999999999      2.8199999999999998
    84   2      1.4099999999999999                   12.69      4.2299999999999995
    85   1                       0      11.279999999999999      5.6399999999999997
    86   2      1.4099999999999999                   12.69      7.0499999999999998
    87   1                       0      11.279999999999999      8.4599999999999991
    88   2      1.4099999999999999                   12.69      9.8699999999999992
    89   1                       0      11.279999999999999      11.279999999999999
    90   2      1.4099999999999999                   12.69                   12.69
    91   1                       0      11.279999999999999                    14.1
    92   2      1.4099999999999999                   12.69                   15.51
    93   1                       0      11.279999999999999      16.919999999999998
    94   2      1.4099999999999999                   12.69      18.329999999999998
    95   1                       0      11.279999999999999      19.739999999999998
    96   2      1.4099999999999999                   12.69      21.149999999999999
    97   1                       0      11.279999999999999      22.559999999999999
    98   2      1.4099999999999999                   12.69      23.969999999999999
    99   1                       0      11.279999999999999      25.379999999999999
   100   2      1.4099999999999999                   12.69      26.789999999999999
   101   1                       0                    14.1                       0
   102   2      1.4099999999999999                   15.51      1.4099999999999999
   103   1                       0                    14.1      2.8199999999999998
   104   2      1.4099999999999999                   15.51      4.2299999999999995
   105   1                       0                    14.1      5.6399999999999997
   106   2      1.4099999999999999                   15.51      7.0499999999999998
   107   1                       0                    14.1      8.4599999999999991
   108   2      1.4099999999999999                   15.51      9.8699999999999992
   109   1                       0                    14.1      11.279999999999999
   110   2      1.4099999999999999                   15.51                   12.69
   111   1                       0                    14.1                    14.1
   112   2      1.4099999999999999                   15.51                   15.51
   113   1                       0                    14.1      16.919999999999998
   114   2      1.4099999999999999                   15.51      18.329999999999998
   115   1                       0                    14.1      19.739999999999998
   116   2      1.4099999999999999                   15.51      21.149999999999999
   117   1                       0                    14.1      22.559999999999999
   118   2      1.4099999999999999                   15.51      23.969999999999999
   119   1                       0                    14.1      25.379999999999999
   120   2      1.4099999999999999                   15.51      26.789999999999999
   121   1                       0      16.919999999999998                       0
   122   2      1.4099999999999999      18.329999999999998      1.4099999999999999
   123   1                       0      16.919999999999998      2.8199999999999998
   124   2      1.4099999999999999      18.329999999999998      4.2299999999999995
   125   1                       0      16.919999999999998      5.6399999999999997
   126   2      1.4099999999999999      18.329999999999998      7.0499999999999998
   127   1                       0      16.919999999999998      8.4599999999999991
   128   2      1.4099999999999999      18.329999999999998      9.8699999999999992
   129   1                       0      16.919999999999998      11.279999999999999
   130   2      1.4099999999999999      18.329999999999998                   12.69
   131   1                       0      16.919999999999998                    14.1
   132   2      1.4099999999999999      18.329999999999998                   15.51
   133   1                       0      16.919999999999998      16.919999999999998
   134   2      1.4099999999999999      18.329999999999998      18.329999999999998
   135   1                       0      16.919999999999998      19.739999999999998
   136   2      1.4099999999999999      18.329999999999998      21.149999999999999
   137   1                       0      16.919999999999998      22.559999999999999
   138   2      1.4099999999999999      18.329999999999998      23.969999999999999
   139   1                       0      16.919999999999998      25.379999999999999
   140   2      1.4099999999999999      18.329999999999998      26.789999999999999
   141   1                       0      19.739999999999998                       0
   142   2      1.4099999999999999      21.149999999999999      1.4099999999999999
   143   1                       0      19.739999999999998      2.8199999999999998
   144   2      1.4099999999999999      21.149999999999999      4.2299999999999995
   145   1                       0      19.739999999999998      5.6399999999999997
   146   2      1.4099999999999999      21.149999999999999      7.0499999999999998
   147   1                       0      19.739999999999998      8.4599999999999991
   148   2      1.4099999999999999      21.149999999999999      9.8699999999999992
   149   1                       0      19.739999999999998      11.279999999999999
   150   2      1.4099999999999999      21.149999999999999                   12.69
   151   1                       0      19.739999999999998                    14.1
   152   2      1.4099999999999999      21.149999999999999                   15.51
   153   1                       0      19.739999999999998      16.919999999999998
   154   2      1.4099999999999999      21.149999999999999      18.329999999999998
   155   1                       0      19.739999999999998      19.739999999999998
   156   2      1.4099999999999999      21.149999999999999      21.149999999999999
   157   1                       0      19.739999999999998      22.559999999999999
   158   2      1.4099999999999999      21.149999999999999      23.969999999999999
   159   1                       0      19.739999999999998      25.379999999999999
   160   2      1.4099999999999999      21.149999999999999      26.789999999999999
   161   1                       0      22.559999999999999                       0
   162   2      1.4099999999999999      23.969999999999999      1.4099999999999999
   163   1                       0      22.559999999999999      2.8199999999999998
   164   2      1.4099999999999999      23.969999999999999      4.2299999999999995
   165   1                       0      22.559999999999999      5.6399999999999997
   166   2      1.4099999999999999      23.969999999999999      7.0499999999999998
   167   1                       0      22.559999999999999      8.4599999999999991
   168   2      1.4099999999999999      23.969999999999999      9.8699999999999992
   169   1                       0      22.559999999999999      11.279999999999999
   170   2      1.4099999999999999      23.969999999999999                   12.69
   171   1                       0      22.559999999999999                    14.1
   172   2      1.4099999999999999      23.969999999999999                   15.51
   173   1                       0      22.559999999999999      16.919999999999998
   174   2      1.4099999999999999      23.969999999999999      18.329999999999998
   175   1                       0      22.559999999999999      19.739999999999998
   176   2      1.4099999999999999      23.969999999999999      21.149999999999999
   177   1                       0      22.559999999999999      22.559999999999999
   178   2      1.4099999999999999      23.969999999999999      23.969999999999999
   179   1                       0      22.559999999999999      25.379999999999999
   180   2      1.4099999999999999      23.969999999999999      26.789999999999999
   181   1                       0      25.379999999999999                       0
   182   2      1.4099999999999999      26.789999999999999      1.4099999999999999
   183   1                       0      25.379999999999999      2.8199999999999998
   184   2      1.4099999999999999      26.789999999999999      4.2299999999999995
   185   1                       0      25.379999999999999      5.6399999999999997
   186   2      1.4099999999999999      26.789999999999999      7.0499999999999998
   187   1                       0      25.379999999999999      8.4599999999999991
   188   2      1.4099999999999999      26.789999999999999      9.8699999999999992
   189   1                       0      25.379999999999999      11.279999999999999
   190   2      1.4099999999999999      26.789999999999999                   12.69
   191   1                       0      25.379999999999999                    14.1
   192   2      1.4099999999999999      26.789999999999999                   15.51
   193   1                       0      25.379999999999999      16.919999999999998
   194   2      1.4099999999999999      26.789999999999999      18.329999999999998
   195   1                       0      25.379999999999999      19.739999999999998
   196   2      1.4099999999999999      26.789999999999999      21.149999999999999
   197   1                       0      25.379999999999999      22.559999999999999
   198   2      1.4099999999999999      26.789999999999999      23.969999999999999
   199   1                       0      25.379999999999999      25.379999999999999
   200   2      1.4099999999999999      26.789999999999999      26.789999999999999
   201   1      2.8199999999999998                       0                       0
   202   2      4.2299999999999995      1.4099999999999999      1.4099999999999999
   203   1      2.8199999999999998                       0      2.8199999999999998
   204   2      4.2299999999999995      1.4099999999999999      4.2299999999999995
   205   1      2.8199999999999998                       0      5.6399999999999997
   206   2      4.2299999999999995      1.4099999999999999      7.0499999999999998
   207   1      2.8199999999999998                       0      8.4599999999999991
   208   2      4.2299999999999995      1.4099999999999999      9.8699999999999992
   209   1      2.8199999999999998                       0      11.279999999999999
   210   2      4.2299999999999995      1.4099999999999999                   12.69
   211   1      2.8199999999999998                       0                    14.1
   212   2      4.2299999999999995      1.4099999999999999                   15.51
   213   1      2.8199999999999998                       0      16.919999999999998
   214   2      4.2299999999999995      1.4099999999999999      18.329999999999998
   215   1      2.8199999999999998                       0      19.739999999999998
   216   2      4.2299999999999995      1.4099999999999999      21.149999999999999
   217   1      2.8199999999999998                       0      22.559999999999999
   218   2      4.2299999999999995      1.4099999999999999      23.969999999999999
   219   1      2.8199999999999998                       0      25.379999999999999
   220   2      4.2299999999999995      1.4099999999999999      26.789999999999999
   221   1      2.8199999999999998      2.8199999999999998                       0
   222   2      4.2299999999999995      4.2299999999999995      1.4099999999999999
   223   1      2.8199999999999998      2.8199999999999998      2.8199999999999998
   224   2      4.2299999999999995      4.2299999999999995      4.2299999999999995
   225   1      2.8199999999999998      2.8199999999999998      5.6399999999999997
   226   2      4.2299999999999995      4.2299999999999995      7.0499999999999998
   227   1      2.8199999999999998      2.8199999999999998      8.4599999999999991
   228   2      4.2299999999999995      4.2299999999999995      9.8699999999999992
   229   1      2.8199999999999998      2.8199999999999998      11.279999999999999
   230   2      4.2299999999999995      4.2299999999999995                   12.69
   231   1      2.8199999999999998      2.8199999999999998                    14.1
   232   2      4.2299999999999995      4.2299999999999995                   15.51
   233   1      2.8199999999999998      2.8199999999999998      16.919999999999998
   234   2      4.2299999999999995      4.2299999999999995      18.329999999999998
   235   1      2.8199999999999998      2.8199999999999998      19.739999999999998
   236   2      4.2299999999999995      4.2299999999999995      21.149999999999999
   237   1      2.8199999999999998      2.8199999999999998      22.559999999999999
   238   2      4.2299999999999995      4.2299999999999995      23.969999999999999
   239   1      2.8199999999999998      2.8199999999999998      25.379999999999999
   240   2      4.2299999999999995      4.2299999999999995      26.789999999999999
   241   1      2.8199999999999998      5.6399999999999997                       0
   242   2      4.2299999999999995      7.0499999999999998      1.4099999999999999
   243   1      2.8199999999999998      5.6399999999999997      2.8199999999999998
   244   2      4.2299999999999995      7.0499999999999998      4.2299999999999995
   245   1      2.8199999999999998      5.6399999999999997      5.6399999999999997
   246   2      4.2299999999999995      7.0499999999999998      7.0499999999999998
   247   1      2.8199999999999998      5.6399999999999997      8.4599999999999991
   248   2      4.2299999999999995      7.0499999999999998      9.8699999999999992
   249   1      2.8199999999999998      5.6399999999999997      11.279999999999999
   250   2      4.2299999999999995      7.0499999999999998                   12.69
   251   1      2.8199999999999998      5.6399999999999997                    14.1
   252   2      4.2299999999999995      7.0499999999999998                   15.51
   253   1      2.8199999999999998      5.6399999999999997      16.919999999999998
   254   2      4.2299999999999995      7.0499999999999998      18.329999999999998
   255   1      2.8199999999999998      5.6399999999999997      19.739999999999998
   256   2      4.2299999999999995      7.0499999999999998      21.149999999999999
   257   1      2.8199999999999998      5.6399999999999997      22.559999999999999
   258   2      4.2299999999999995      7.0499999999999998      23.969999999999999
   259   1      2.8199999999999998      5.6399999999999997      25.379999999999999
   260   2      4.2299999999999995      7.0499999999999998      26.789999999999999
   261   1      2.8199999999999998      8.4599999999999991                       0
   262   2      4.2299999999999995      9.8699999999999992      1.4099999999999999
   263   1      2.8199999999999998      8.4599999999999991      2.8199999999999998
   264   2      4.2299999999999995      9.8699999999999992      4.2299999999999995
   265   1      2.8199999999999998      8.4599999999999991      5.6399999999999997
   266   2      4.2299999999999995      9.8699999999999992      7.0499999999999998
   267   1      2.8199999999999998      8.4599999999999991      8.4599999999999991
   268   2      4.2299999999999995      9.8699999999999992      9.8699999999999992
   269   1      2.8199999999999998      8.4599999999999991      11.279999999999999
   270   2      4.2299999999999995      9.8699999999999992                   12.69
   271   1      2.8199999999999998      8.4599999999999991                    14.1
   272   2      4.2299999999999995      9.8699999999999992                   15.51
   273   1      2.8199999999999998      8.4599999999999991      16.919999999999998
   274   2      4.2299999999999995      9.8699999999999992      18.329999999999998
   275   1      2.8199999999999998      8.4599999999999991      19.739999999999998
   276   2      4.2299999999999995      9.8699999999999992      21.149999999999999
   277   1      2.8199999999999998      8.4599999999999991      22.559999999999999
   278   2      4.2299999999999995      9.8699999999999992      23.969999999999999
   279   1      2.8199999999999998      8.4599999999999991      25.379999999999999
   280   2      4.2299999999999995      9.8699999999999992      26.789999999999999
   281   1      2.8199999999999998      11.279999999999999                       0
   282   2      4.2299999999999995                   12.69      1.4099999999999999
   283   1      2.8199999999999998      11.279999999999999      2.8199999999999998
   284   2      4.2299999999999995                   12.69      4.2299999999999995
   285   1      2.8199999999999998      11.279999999999999      5.6399999999999997
   286   2      4.2299999999999995                   12.69      7.0499999999999998
   287   1      2.8199999999999998      11.279999999999999      8.4599999999999991
   288   2      4.2299999999999995                   12.69      9.8699999999999992
   289   1      2.8199999999999998      11.279999999999999      11.279999999999999
   290   2      4.2299999999999995                   12.69                   12.69
   291   1      2.8199999999999998      11.279999999999999                    14.1
   292   2      4.2299999999999995                   12.69                   15.51
   293   1      2.8199999999999998      11.279999999999999      16.919999999999998
   294   2      4.2299999999999995                   12.69      18.329999999999998
   295   1      2.8199999999999998      11.279999999999999      19.739999999999998
   296   2      4.2299999999999995                   12.69      21.149999999999999
   297   1      2.8199999999999998      11.279999999999999      22.559999999999999
   298   2      4.2299999999999995                   12.69      23.969999999999999
   299   1      2.8199999999999998      11.279999999999999      25.379999999999999
   300   2      4.2299999999999995                   12.69      26.789999999999999
   301   1      2.8199999999999998                    14.1                       0
   302   2      4.2299999999999995                   15.51      1.4099999999999999
   303   1      2.8199999999999998                    14.1      2.8199999999999998
   304   2      4.2299999999999995                   15.51      4.2299999999999995
   305   1      2.8199999999999998                    14.1      5.6399999999999997
   306   2      4.2299999999999995                   15.51      7.0499999999999998
   307   1      2.8199999999999998                    14.1      8.4599999999999991
   308   2      4.2299999999999995                   15.51      9.8699999999999992
   309   1      2.8199999999999998                    14.1      11.279999999999999
   310   2      4.2299999999999995                   15.51                   12.69
   311   1      2.8199999999999998                    14.1                    14.1
   312   2      4.2299999999999995                   15.51                   15.51
   313   1      2.8199999999999998                    14.1      16.919999999999998
   314   2      4.2299999999999995                   15.51      18.329999999999998
   315   1      2.8199999999999998                    14.1      19.739999999999998
   316   2      4.2299999999999995                   15.51      21.149999999999999
   317   1      2.8199999999999998                    14.1      22.559999999999999
   318   2      4.2299999999999995                   15.51      23.969999999999999
   319   1      2.8199999999999998                    14.1      25.379999999999999
   320   2      4.2299999999999995                   15.51      26.789999999999999
   321   1      2.8199999999999998      16.919999999999998                       0
   322   2      4.2299999999999995      18.329999999999998      1.4099999999999999
   323   1      2.8199999999999998      16.919999999999998      2.8199999999999998
   324   2      4.2299999999999995      18.329999999999998      4.2299999999999995
   325   1      2.8199999999999998      16.919999999999998      5.6399999999999997
   326   2      4.2299999999999995      18.329999999999998      7.0499999999999998
   327   1      2.8199999999999998      16.919999999999998      8.4599999999999991
   328   2      4.2299999999999995      18.329999999999998      9.8699999999999992
   329   1      2.8199999999999998      16.919999999999998      11.279999999999999
   330   2      4.2299999999999995      18.329999999999998                   12.69
   331   1      2.8199999999999998      16.919999999999998                    14.1
   332   2      4.2299999999999995      18.329999999999998                   15.51
   333   1      2.8199999999999998      16.919999999999998      16.919999999999998
   334   2      4.2299999999999995      18.329999999999998      18.329999999999998
   335   1      2.8199999999999998      16.919999999999998      19.739999999999998
   336   2      4.2299999999999995      18.329999999999998      21.149999999999999
   337   1      2.8199999999999998      16.919999999999998      22.559999999999999
   338   2      4.2299999999999995      18.329999999999998      23.969999999999999
   339   1      2.8199999999999998      16.919999999999998      25.379999999999999
   340   2      4.2299999999999995      18.329999999999998      26.789999999999999
   341   1      2.8199999999999998      19.739999999999998                       0
   342   2      4.2299999999999995      21.149999999999999      1.4099999999999999
   343   1      2.8199999999999998      19.739999999999998      2.8199999999999998
   344   2      4.2299999999999995      21.149999999999999      4.2299999999999995
   345   1      2.8199999999999998      19.739999999999998      5.6399999999999997
   346   2      4.2299999999999995      21.149999999999999      7.0499999999999998
   347   1      2.8199999999999998      19.739999999999998      8.4599999999999991
   348   2      4.2299999999999995      21.149999999999999      9.8699999999999992
   349   1      2.8199999999999998      19.739999999999998      11.279999999999999
   350   2      4.2299999999999995      21.149999999999999                   12.69
   351   1      2.8199999999999998      19.739999999999998                    14.1
   352   2      4.2299999999999995      21.149999999999999                   15.51
   353   1      2.8199999999999998      19.739999999999998      16.919999999999998
   354   2      4.2299999999999995      21.149999999999999      18.329999999999998
   355   1      2.8199999999999998      19.739999999999998      19.739999999999998
   356   2      4.2299999999999995      21.149999999999999      21.149999999999999
   357   1      2.8199999999999998      19.739999999999998      22.559999999999999
   358   2      4.2299999999999995      21.149999999999999      23.969999999999999
   359   1      2.8199999999999998      19.739999999999998      25.379999999999999