ITEM: TIMESTEP
0
ITEM: NUMBER OF ATOMS
2000
ITEM: BOX BOUNDS xy xz yz pp pp pp
0.0000000000000000e+00 2.8199999999999999e+01 0.0000000000000000e+00
0.0000000000000000e+00 2.8199999999999999e+01 0.0000000000000000e+00
0.0000000000000000e+00 2.8199999999999999e+01 0.0000000000000000e+00
ITEM: ATOMS id type xs ys zs
1 1 0 0 0
2 2 0.05 0.05 0.05
3 1 0 0 0.1
4 2 0.05 0.05 0.15
21 1 0 0.1 0
22 2 0.05 0.15 0.05
23 1 0 0.1 0.1
24 2 0.05 0.15 0.15
201 1 0.1 0 0
202 2 0.15 0.05 0.05
203 1 0.1 0 0.1
204 2 0.15 0.05 0.15
221 1 0.1 0.1 0
222 2 0.15 0.15 0.05
223 1 0.1 0.1 0.1
224 2 0.15 0.15 0.15
401 1 0.2 0 0
402 2 0.25 0.05 0.05
403 1 0.2 0 0.1
404 2 0.25 0.05 0.15
421 1 0.2 0.1 0
422 2 0.25 0.15 0.05
423 1 0.2 0.1 0.1
424 2 0.25 0.15 0.15
601 1 0.3 0 0
603 1 0.3 0 0.1
621 1 0.3 0.1 0
623 1 0.3 0.1 0.1
602 2 0.35 0.05 0.05
604 2 0.35 0.05 0.15
622 2 0.35 0.15 0.05
624 2 0.35 0.15 0.15
801 1 0.4 0 0
802 2 0.45 0.05 0.05
803 1 0.4 0 0.1
804 2 0.45 0.05 0.15
821 1 0.4 0.1 0
822 2 0.45 0.15 0.05
823 1 0.4 0.1 0.1
824 2 0.45 0.15 0.15
1001 1 0.5 0 0
1002 2 0.55 0.05 0.05
1003 1 0.5 0 0.1
1004 2 0.55 0.05 0.15
1021 1 0.5 0.1 0
1022 2 0.55 0.15 0.05
1023 1 0.5 0.1 0.1
1024 2 0.55 0.15 0.15
1201 1 0.6 0 0
1202 2 0.65 0.05 0.05
1203 1 0.6 0 0.1
1204 2 0.65 0.05 0.15
1221 1 0.6 0.1 0
1222 2 0.65 0.15 0.05
1223 1 0.6 0.1 0.1
1224 2 0.65 0.15 0.15
1401 1 0.7 0 0
1402 2 0.75 0.05 0.05
1403 1 0.7 0 0.1
1404 2 0.75 0.05 0.15
1421 1 0.7 0.1 0
1422 2 0.75 0.15 0.05
1423 1 0.7 0.1 0.1
1424 2 0.75 0.15 0.15
1601 1 0.8 0 0
1603 1 0.8 0 0.1
1621 1 0.8 0.1 0
1623 1 0.8 0.1 0.1
1602 2 0.85 0.05 0.05
1604 2 0.85 0.05 0.15
1622 2 0.85 0.15 0.05
1624 2 0.85 0.15 0.15
1801 1 0.9 0 0
1802 2 0.95 0.05 0.05
1803 1 0.9 0 0.1
1804 2 0.95 0.05 0.15
1821 1 0.9 0.1 0
1822 2 0.95 0.15 0.05
1823 1 0.9 0.1 0.1
1824 2 0.95 0.15 0.15
41 1 0 0.2 0
42 2 0.05 0.25 0.05
43 1 0 0.2 0.1
44 2 0.05 0.25 0.15
61 1 0 0.3 0
63 1 0 0.3 0.1
241 1 0.1 0.2 0
242 2 0.15 0.25 0.05
243 1 0.1 0.2 0.1
244 2 0.15 0.25 0.15
261 1 0.1 0.3 0
263 1 0.1 0.3 0.1
441 1 0.2 0.2 0
442 2 0.25 0.25 0.05
443 1 0.2 0.2 0.1
444 2 0.25 0.25 0.15
461 1 0.2 0.3 0
463 1 0.2 0.3 0.1
641 1 0.3 0.2 0
643 1 0.3 0.2 0.1
661 1 0.3 0.3 0
663 1 0.3 0.3 0.1
642 2 0.35 0.25 0.05
644 2 0.35 0.25 0.15
841 1 0.4 0.2 0
842 2 0.45 0.25 0.05
843 1 0.4 0.2 0.1
844 2 0.45 0.25 0.15
861 1 0.4 0.3 0
863 1 0.4 0.3 0.1
1041 1 0.5 0.2 0
1042 2 0.55 0.25 0.05
1043 1 0.5 0.2 0.1
1044 2 0.55 0.25 0.15
1061 1 0.5 0.3 0
1063 1 0.5 0.3 0.1
1241 1 0.6 0.2 0
1242 2 0.65 0.25 0.05
1243 1 0.6 0.2 0.1
1244 2 0.65 0.25 0.15
1261 1 0.6 0.3 0
1263 1 0.6 0.3 0.1
1441 1 0.7 0.2 0
1442 2 0.75 0.25 0.05
1443 1 0.7 0.2 0.1
1444 2 0.75 0.25 0.15
1461 1 0.7 0.3 0
1463 1 0.7 0.3 0.1
1641 1 0.8 0.2 0
1643 1 0.8 0.2 0.1
1661 1 0.8 0.3 0
1663 1 0.8 0.3 0.1
1642 2 0.85 0.25 0.05
1644 2 0.85 0.25 0.15
1841 1 0.9 0.2 0
1842 2 0.95 0.25 0.05
1843 1 0.9 0.2 0.1
1844 2 0.95 0.25 0.15
1861 1 0.9 0.3 0
1863 1 0.9 0.3 0.1
62 2 0.05 0.35 0.05
64 2 0.05 0.35 0.15
81 1 0 0.4 0
82 2 0.05 0.45 0.05
83 1 0 0.4 0.1
84 2 0.05 0.45 0.15
262 2 0.15 0.35 0.05
264 2 0.15 0.35 0.15
281 1 0.1 0.4 0
282 2 0.15 0.45 0.05
283 1 0.1 0.4 0.1
284 2 0.15 0.45 0.15
462 2 0.25 0.35 0.05
464 2 0.25 0.35 0.15
481 1 0.2 0.4 0
482 2 0.25 0.45 0.05
483 1 0.2 0.4 0.1
484 2 0.25 0.45 0.15
681 1 0.3 0.4 0
683 1 0.3 0.4 0.1
662 2 0.35 0.35 0.05
664 2 0.35 0.35 0.15
682 2 0.35 0.45 0.05
684 2 0.35 0.45 0.15
862 2 0.45 0.35 0.05
864 2 0.45 0.35 0.15
881 1 0.4 0.4 0
882 2 0.45 0.45 0.05
883 1 0.4 0.4 0.1
884 2 0.45 0.45 0.15
1062 2 0.55 0.35 0.05
1064 2 0.55 0.35 0.15
1081 1 0.5 0.4 0
1082 2 0.55 0.45 0.05
1083 1 0.5 0.4 0.1
1084 2 0.55 0.45 0.15
1262 2 0.65 0.35 0.05
1264 2 0.65 0.35 0.15
1281 1 0.6 0.4 0
1282 2 0.65 0.45 0.05
1283 1 0.6 0.4 0.1
1284 2 0.65 0.45 0.15
1462 2 0.75 0.35 0.05
1464 2 0.75 0.35 0.15
1481 1 0.7 0.4 0
1482 2 0.75 0.45 0.05
1483 1 0.7 0.4 0.1
1484 2 0.75 0.45 0.15
1681 1 0.8 0.4 0
1683 1 0.8 0.4 0.1
1662 2 0.85 0.35 0.05
1664 2 0.85 0.35 0.15
1682 2 0.85 0.45 0.05
1684 2 0.85 0.45 0.15
1862 2 0.95 0.35 0.05
1864 2 0.95 0.35 0.15
1881 1 0.9 0.4 0
1882 2 0.95 0.45 0.05
1883 1 0.9 0.4 0.1
1884 2 0.95 0.45 0.15
101 1 0 0.5 0
102 2 0.05 0.55 0.05
103 1 0 0.5 0.1
104 2 0.05 0.55 0.15
121 1 0 0.6 0
122 2 0.05 0.65 0.05
123 1 0 0.6 0.1
124 2 0.05 0.65 0.15
301 1 0.1 0.5 0
302 2 0.15 0.55 0.05
303 1 0.1 0.5 0.1
304 2 0.15 0.55 0.15
321 1 0.1 0.6 0
322 2 0.15 0.65 0.05
323 1 0.1 0.6 0.1
324 2 0.15 0.65 0.15
501 1 0.2 0.5 0
502 2 0.25 0.55 0.05
503 1 0.2 0.5 0.1
504 2 0.25 0.55 0.15
521 1 0.2 0.6 0
522 2 0.25 0.65 0.05
523 1 0.2 0.6 0.1
524 2 0.25 0.65 0.15
701 1 0.3 0.5 0
703 1 0.3 0.5 0.1
721 1 0.3 0.6 0
723 1 0.3 0.6 0.1
702 2 0.35 0.55 0.05
704 2 0.35 0.55 0.15
722 2 0.35 0.65 0.05
724 2 0.35 0.65 0.15
901 1 0.4 0.5 0
902 2 0.45 0.55 0.05
903 1 0.4 0.5 0.1
904 2 0.45 0.55 0.15
921 1 0.4 0.6 0
922 2 0.45 0.65 0.05
923 1 0.4 0.6 0.1
924 2 0.45 0.65 0.15
1101 1 0.5 0.5 0
1102 2 0.55 0.55 0.05
1103 1 0.5 0.5 0.1
1104 2 0.55 0.55 0.15
1121 1 0.5 0.6 0
1122 2 0.55 0.65 0.05
1123 1 0.5 0.6 0.1
1124 2 0.55 0.65 0.15
1301 1 0.6 0.5 0
1302 2 0.65 0.55 0.05
1303 1 0.6 0.5 0.1
1304 2 0.65 0.55 0.15
1321 1 0.6 0.6 0
1322 2 0.65 0.65 0.05
1323 1 0.6 0.6 0.1
1324 2 0.65 0.65 0.15
1501 1 0.7 0.5 0
1502 2 0.75 0.55 0.05
1503 1 0.7 0.5 0.1
1504 2 0.75 0.55 0.15
1521 1 0.7 0.6 0
1522 2 0.75 0.65 0.05
1523 1 0.7 0.6 0.1
1524 2 0.75 0.65 0.15
1701 1 0.8 0.5 0
1703 1 0.8 0.5 0.1
1721 1 0.8 0.6 0
1723 1 0.8 0.6 0.1
1702 2 0.85 0.55 0.05
1704 2 0.85 0.55 0.15
1722 2 0.85 0.65 0.05
1724 2 0.85 0.65 0.15
1901 1 0.9 0.5 0
1902 2 0.95 0.55 0.05
1903 1 0.9 0.5 0.1
1904 2 0.95 0.55 0.15
1921 1 0.9 0.6 0
1922 2 0.95 0.65 0.05
1923 1 0.9 0.6 0.1
1924 2 0.95 0.65 0.15
141 1 0 0.7 0
142 2 0.05 0.75 0.05
143 1 0 0.7 0.1
144 2 0.05 0.75 0.15
161 1 0 0.8 0
163 1 0 0.8 0.1
341 1 0.1 0.7 0
342 2 0.15 0.75 0.05
343 1 0.1 0.7 0.1
344 2 0.15 0.75 0.15
361 1 0.1 0.8 0
363 1 0.1 0.8 0.1
541 1 0.2 0.7 0
542 2 0.25 0.75 0.05
543 1 0.2 0.7 0.1
544 2 0.25 0.75 0.15
561 1 0.2 0.8 0
563 1 0.2 0.8 0.1
741 1 0.3 0.7 0
743 1 0.3 0.7 0.1
761 1 0.3 0.8 0
763 1 0.3 0.8 0.1
742 2 0.35 0.75 0.05
744 2 0.35 0.75 0.15
941 1 0.4 0.7 0
942 2 0.45 0.75 0.05
943 1 0.4 0.7 0.1
944 2 0.45 0.75 0.15
961 1 0.4 0.8 0
963 1 0.4 0.8 0.1
1141 1 0.5 0.7 0
1142 2 0.55 0.75 0.05
1143 1 0.5 0.7 0.1
1144 2 0.55 0.75 0.15
1161 1 0.5 0.8 0
1163 1 0.5 0.8 0.1
1341 1 0.6 0.7 0
1342 2 0.65 0.75 0.05
1343 1 0.6 0.7 0.1
1344 2 0.65 0.75 0.15
1361 1 0.6 0.8 0
1363 1 0.6 0.8 0.1
1541 1 0.7 0.7 0
1542 2 0.75 0.75 0.05
1543 1 0.7 0.7 0.1
1544 2 0.75 0.75 0.15
1561 1 0.7 0.8 0
1563 1 0.7 0.8 0.1
1741 1 0.8 0.7 0
1743 1 0.8 0.7 0.1
1761 1 0.8 0.8 0
1763 1 0.8 0.8 0.1
1742 2 0.85 0.75 0.05
1744 2 0.85 0.75 0.15
1941 1 0.9 0.7 0
1942 2 0.95 0.75 0.05
1943 1 0.9 0.7 0.1
1944 2 0.95 0.75 0.15
1961 1 0.9 0.8 0
1963 1 0.9 0.8 0.1
162 2 0.05 0.85 0.05
164 2 0.05 0.85 0.15
181 1 0 0.9 0
182 2 0.05 0.95 0.05
183 1 0 0.9 0.1
184 2 0.05 0.95 0.15
362 2 0.15 0.85 0.05
364 2 0.15 0.85 0.15
381 1 0.1 0.9 0
382 2 0.15 0.95 0.05
383 1 0.1 0.9 0.1
384 2 0.15 0.95 0.15
562 2 0.25 0.85 0.05
564 2 0.25 0.85 0.15
581 1 0.2 0.9 0
582 2 0.25 0.95 0.05
583 1 0.2 0.9 0.1
584 2 0.25 0.95 0.15
781 1 0.3 0.9 0
783 1 0.3 0.9 0.1
762 2 0.35 0.85 0.05
764 2 0.35 0.85 0.15
782 2 0.35 0.95 0.05
784 2 0.35 0.95 0.15
962 2 0.45 0.85 0.05
964 2 0.45 0.85 0.15
981 1 0.4 0.9 0
982 2 0.45 0.95 0.05
983 1 0.4 0.9 0.1
984 2 0.45 0.95 0.15
1162 2 0.55 0.85 0.05
1164 2 0.55 0.85 0.15
1181 1 0.5 0.9 0
1182 2 0.55 0.95 0.05
1183 1 0.5 0.9 0.1
1184 2 0.55 0.95 0.15
1362 2 0.65 0.85 0.05
1364 2 0.65 0.85 0.15
1381 1 0.6 0.9 0
1382 2 0.65 0.95 0.05
1383 1 0.6 0.9 0.1
1384 2 0.65 0.95 0.15
1562 2 0.75 0.85 0.05
1564 2 0.75 0.85 0.15
1581 1 0.7 0.9 0
1582 2 0.75 0.95 0.05
1583 1 0.7 0.9 0.1
1584 2 0.75 0.95 0.15
1781 1 0.8 0.9 0
1783 1 0.8 0.9 0.1
1762 2 0.85 0.85 0.05
1764 2 0.85 0.85 0.15
1782 2 0.85 0.95 0.05
1784 2 0.85 0.95 0.15
1962 2 0.95 0.85 0.05
1964 2 0.95 0.85 0.15
1981 1 0.9 0.9 0
1982 2 0.95 0.95 0.05
1983 1 0.9 0.9 0.1
1984 2 0.95 0.95 0.15
5 1 0 0 0.2
6 2 0.05 0.05 0.25
7 1 0 0 0.3
25 1 0 0.1 0.2
26 2 0.05 0.15 0.25
27 1 0 0.1 0.3
205 1 0.1 0 0.2
206 2 0.15 0.05 0.25
207 1 0.1 0 0.3
225 1 0.1 0.1 0.2
226 2 0.15 0.15 0.25
227 1 0.1 0.1 0.3
405 1 0.2 0 0.2
406 2 0.25 0.05 0.25
407 1 0.2 0 0.3
425 1 0.2 0.1 0.2
426 2 0.25 0.15 0.25
427 1 0.2 0.1 0.3
605 1 0.3 0 0.2
607 1 0.3 0 0.3
625 1 0.3 0.1 0.2
627 1 0.3 0.1 0.3
606 2 0.35 0.05 0.25
626 2 0.35 0.15 0.25
805 1 0.4 0 0.2
806 2 0.45 0.05 0.25
807 1 0.4 0 0.3
825 1 0.4 0.1 0.2
826 2 0.45 0.15 0.25
827 1 0.4 0.1 0.3
1005 1 0.5 0 0.2
1006 2 0.55 0.05 0.25
1007 1 0.5 0 0.3
1025 1 0.5 0.1 0.2
1026 2 0.55 0.15 0.25
1027 1 0.5 0.1 0.3
1205 1 0.6 0 0.2
1206 2 0.65 0.05 0.25
1207 1 0.6 0 0.3
1225 1 0.6 0.1 0.2
1226 2 0.65 0.15 0.25
1227 1 0.6 0.1 0.3
1405 1 0.7 0 0.2
1406 2 0.75 0.05 0.25
1407 1 0.7 0 0.3
1425 1 0.7 0.1 0.2
1426 2 0.75 0.15 0.25
1427 1 0.7 0.1 0.3
1605 1 0.8 0 0.2
1607 1 0.8 0 0.3
1625 1 0.8 0.1 0.2
1627 1 0.8 0.1 0.3
1606 2 0.85 0.05 0.25
1626 2 0.85 0.15 0.25
1805 1 0.9 0 0.2
1806 2 0.95 0.05 0.25
1807 1 0.9 0 0.3
1825 1 0.9 0.1 0.2
1826 2 0.95 0.15 0.25
1827 1 0.9 0.1 0.3
45 1 0 0.2 0.2
46 2 0.05 0.25 0.25
47 1 0 0.2 0.3
65 1 0 0.3 0.2
67 1 0 0.3 0.3
245 1 0.1 0.2 0.2
246 2 0.15 0.25 0.25
247 1 0.1 0.2 0.3
265 1 0.1 0.3 0.2
267 1 0.1 0.3 0.3
445 1 0.2 0.2 0.2
446 2 0.25 0.25 0.25
447 1 0.2 0.2 0.3
465 1 0.2 0.3 0.2
467 1 0.2 0.3 0.3
645 1 0.3 0.2 0.2
647 1 0.3 0.2 0.3
665 1 0.3 0.3 0.2
667 1 0.3 0.3 0.3
646 2 0.35 0.25 0.25
845 1 0.4 0.2 0.2
846 2 0.45 0.25 0.25
847 1 0.4 0.2 0.3
865 1 0.4 0.3 0.2
867 1 0.4 0.3 0.3
1045 1 0.5 0.2 0.2
1046 2 0.55 0.25 0.25
1047 1 0.5 0.2 0.3
1065 1 0.5 0.3 0.2
1067 1 0.5 0.3 0.3
1245 1 0.6 0.2 0.2
1246 2 0.65 0.25 0.25
1247 1 0.6 0.2 0.3
1265 1 0.6 0.3 0.2
1267 1 0.6 0.3 0.3
1445 1 0.7 0.2 0.2
1446 2 0.75 0.25 0.25
1447 1 0.7 0.2 0.3
1465 1 0.7 0.3 0.2
1467 1 0.7 0.3 0.3
1645 1 0.8 0.2 0.2
1647 1 0.8 0.2 0.3
1665 1 0.8 0.3 0.2
1667 1 0.8 0.3 0.3
1646 2 0.85 0.25 0.25
1845 1 0.9 0.2 0.2
1846 2 0.95 0.25 0.25
1847 1 0.9 0.2 0.3
1865 1 0.9 0.3 0.2
1867 1 0.9 0.3 0.3
66 2 0.05 0.35 0.25
85 1 0 0.4 0.2
86 2 0.05 0.45 0.25
87 1 0 0.4 0.3
266 2 0.15 0.35 0.25
285 1 0.1 0.4 0.2
286 2 0.15 0.45 0.25
287 1 0.1 0.4 0.3
466 2 0.25 0.35 0.25
485 1 0.2 0.4 0.2
486 2 0.25 0.45 0.25
487 1 0.2 0.4 0.3
685 1 0.3 0.4 0.2
687 1 0.3 0.4 0.3
666 2 0.35 0.35 0.25
686 2 0.35 0.45 0.25
866 2 0.45 0.35 0.25
885 1 0.4 0.4 0.2
886 2 0.45 0.45 0.25
887 1 0.4 0.4 0.3
1066 2 0.55 0.35 0.25
1085 1 0.5 0.4 0.2
1086 2 0.55 0.45 0.25
1087 1 0.5 0.4 0.3
1266 2 0.65 0.35 0.25
1285 1 0.6 0.4 0.2
1286 2 0.65 0.45 0.25
1287 1 0.6 0.4 0.3
1466 2 0.75 0.35 0.25
1485 1 0.7 0.4 0.2
1486 2 0.75 0.45 0.25
1487 1 0.7 0.4 0.3
1685 1 0.8 0.4 0.2
1687 1 0.8 0.4 0.3
1666 2 0.85 0.35 0.25
1686 2 0.85 0.45 0.25
1866 2 0.95 0.35 0.25
1885 1 0.9 0.4 0.2
1886 2 0.95 0.45 0.25
1887 1 0.9 0.4 0.3
105 1 0 0.5 0.2
106 2 0.05 0.55 0.25
107 1 0 0.5 0.3
125 1 0 0.6 0.2
126 2 0.05 0.65 0.25
127 1 0 0.6 0.3
305 1 0.1 0.5 0.2
306 2 0.15 0.55 0.25
307 1 0.1 0.5 0.3
325 1 0.1 0.6 0.2
326 2 0.15 0.65 0.25
327 1 0.1 0.6 0.3
505 1 0.2 0.5 0.2
506 2 0.25 0.55 0.25
507 1 0.2 0.5 0.3
525 1 0.2 0.6 0.2
526 2 0.25 0.65 0.25
527 1 0.2 0.6 0.3
705 1 0.3 0.5 0.2
707 1 0.3 0.5 0.3
725 1 0.3 0.6 0.2
727 1 0.3 0.6 0.3
706 2 0.35 0.55 0.25
726 2 0.35 0.65 0.25
905 1 0.4 0.5 0.2
906 2 0.45 0.55 0.25
907 1 0.4 0.5 0.3
925 1 0.4 0.6 0.2
926 2 0.45 0.65 0.25
927 1 0.4 0.6 0.3
1105 1 0.5 0.5 0.2
1106 2 0.55 0.55 0.25
1107 1 0.5 0.5 0.3
1125 1 0.5 0.6 0.2
1126 2 0.55 0.65 0.25
1127 1 0.5 0.6 0.3
1305 1 0.6 0.5 0.2
1306 2 0.65 0.55 0.25
1307 1 0.6 0.5 0.3
1325 1 0.6 0.6 0.2
1326 2 0.65 0.65 0.25
1327 1 0.6 0.6 0.3
1505 1 0.7 0.5 0.2
1506 2 0.75 0.55 0.25
1507 1 0.7 0.5 0.3
1525 1 0.7 0.6 0.2
1526 2 0.75 0.65 0.25
1527 1 0.7 0.6 0.3
1705 1 0.8 0.5 0.2
1707 1 0.8 0.5 0.3
1725 1 0.8 0.6 0.2
1727 1 0.8 0.6 0.3
1706 2 0.85 0.55 0.25
1726 2 0.85 0.65 0.25
1905 1 0.9 0.5 0.2
1906 2 0.95 0.55 0.25
1907 1 0.9 0.5 0.3
1925 1 0.9 0.6 0.2
1926 2 0.95 0.65 0.25
1927 1 0.9 0.6 0.3
145 1 0 0.7 0.2
146 2 0.05 0.75 0.25
147 1 0 0.7 0.3
165 1 0 0.8 0.2
167 1 0 0.8 0.3
345 1 0.1 0.7 0.2
346 2 0.15 0.75 0.25
347 1 0.1 0.7 0.3
365 1 0.1 0.8 0.2
367 1 0.1 0.8 0.3
545 1 0.2 0.7 0.2
546 2 0.25 0.75 0.25
547 1 0.2 0.7 0.3
565 1 0.2 0.8 0.2
567 1 0.2 0.8 0.3
745 1 0.3 0.7 0.2
747 1 0.3 0.7 0.3
765 1 0.3 0.8 0.2
767 1 0.3 0.8 0.3
746 2 0.35 0.75 0.25
945 1 0.4 0.7 0.2
946 2 0.45 0.75 0.25
947 1 0.4 0.7 0.3
965 1 0.4 0.8 0.2
967 1 0.4 0.8 0.3
1145 1 0.5 0.7 0.2
1146 2 0.55 0.75 0.25
1147 1 0.5 0.7 0.3
1165 1 0.5 0.8 0.2
1167 1 0.5 0.8 0.3
1345 1 0.6 0.7 0.2
1346 2 0.65 0.75 0.25
1347 1 0.6 0.7 0.3
1365 1 0.6 0.8 0.2
1367 1 0.6 0.8 0.3
1545 1 0.7 0.7 0.2
1546 2 0.75 0.75 0.25
1547 1 0.7 0.7 0.3
1565 1 0.7 0.8 0.2
1567 1 0.7 0.8 0.3
1745 1 0.8 0.7 0.2
1747 1 0.8 0.7 0.3
1765 1 0.8 0.8 0.2
1767 1 0.8 0.8 0.3
1746 2 0.85 0.75 0.25
1945 1 0.9 0.7 0.2
1946 2 0.95 0.75 0.25
1947 1 0.9 0.7 0.3
1965 1 0.9 0.8 0.2
1967 1 0.9 0.8 0.3
166 2 0.05 0.85 0.25
185 1 0 0.9 0.2
186 2 0.05 0.95 0.25
187 1 0 0.9 0.3
366 2 0.15 0.85 0.25
385 1 0.1 0.9 0.2
386 2 0.15 0.95 0.25
387 1 0.1 0.9 0.3
566 2 0.25 0.85 0.25
585 1 0.2 0.9 0.2
586 2 0.25 0.95 0.25
587 1 0.2 0.9 0.3
785 1 0.3 0.9 0.2
787 1 0.3 0.9 0.3
766 2 0.35 0.85 0.25
786 2 0.35 0.95 0.25
966 2 0.45 0.85 0.25
985 1 0.4 0.9 0.2
986 2 0.45 0.95 0.25
987 1 0.4 0.9 0.3
1166 2 0.55 0.85 0.25
1185 1 0.5 0.9 0.2
1186 2 0.55 0.95 0.25
1187 1 0.5 0.9 0.3
1366 2 0.65 0.85 0.25
1385 1 0.6 0.9 0.2
1386 2 0.65 0.95 0.25
1387 1 0.6 0.9 0.3
1566 2 0.75 0.85 0.25
1585 1 0.7 0.9 0.2
1586 2 0.75 0.95 0.25
1587 1 0.7 0.9 0.3
1785 1 0.8 0.9 0.2
1787 1 0.8 0.9 0.3
1766 2 0.85 0.85 0.25
1786 2 0.85 0.95 0.25
1966 2 0.95 0.85 0.25
1985 1 0.9 0.9 0.2
1986 2 0.95 0.95 0.25
1987 1 0.9 0.9 0.3
8 2 0.05 0.05 0.35
9 1 0 0 0.4
10 2 0.05 0.05 0.45
28 2 0.05 0.15 0.35
29 1 0 0.1 0.4
30 2 0.05 0.15 0.45
208 2 0.15 0.05 0.35
209 1 0.1 0 0.4
210 2 0.15 0.05 0.45
228 2 0.15 0.15 0.35
229 1 0.1 0.1 0.4
230 2 0.15 0.15 0.45
408 2 0.25 0.05 0.35
409 1 0.2 0 0.4
410 2 0.25 0.05 0.45
428 2 0.25 0.15 0.35
429 1 0.2 0.1 0.4
430 2 0.25 0.15 0.45
609 1 0.3 0 0.4
629 1 0.3 0.1 0.4
608 2 0.35 0.05 0.35
610 2 0.35 0.05 0.45
628 2 0.35 0.15 0.35
630 2 0.35 0.15 0.45
808 2 0.45 0.05 0.35
809 1 0.4 0 0.4
810 2 0.45 0.05 0.45
828 2 0.45 0.15 0.35
829 1 0.4 0.1 0.4
830 2 0.45 0.15 0.45
1008 2 0.55 0.05 0.35
1009 1 0.5 0 0.4
1010 2 0.55 0.05 0.45
1028 2 0.55 0.15 0.35
1029 1 0.5 0.1 0.4
1030 2 0.55 0.15 0.45
1208 2 0.65 0.05 0.35
1209 1 0.6 0 0.4
1210 2 0.65 0.05 0.45
1228 2 0.65 0.15 0.35
1229 1 0.6 0.1 0.4
1230 2 0.65 0.15 0.45
1408 2 0.75 0.05 0.35
1409 1 0.7 0 0.4
1410 2 0.75 0.05 0.45
1428 2 0.75 0.15 0.35
1429 1 0.7 0.1 0.4
1430 2 0.75 0.15 0.45
1609 1 0.8 0 0.4
1629 1 0.8 0.1 0.4
1608 2 0.85 0.05 0.35
1610 2 0.85 0.05 0.45
1628 2 0.85 0.15 0.35
1630 2 0.85 0.15 0.45
1808 2 0.95 0.05 0.35
1809 1 0.9 0 0.4
1810 2 0.95 0.05 0.45
1828 2 0.95 0.15 0.35
1829 1 0.9 0.1 0.4
1830 2 0.95 0.15 0.45
48 2 0.05 0.25 0.35
49 1 0 0.2 0.4
50 2 0.05 0.25 0.45
69 1 0 0.3 0.4
248 2 0.15 0.25 0.35
249 1 0.1 0.2 0.4
250 2 0.15 0.25 0.45
269 1 0.1 0.3 0.4
448 2 0.25 0.25 0.35
449 1 0.2 0.2 0.4
450 2 0.25 0.25 0.45
469 1 0.2 0.3 0.4
649 1 0.3 0.2 0.4
669 1 0.3 0.3 0.4
648 2 0.35 0.25 0.35
650 2 0.35 0.25 0.45
848 2 0.45 0.25 0.35
849 1 0.4 0.2 0.4
850 2 0.45 0.25 0.45
869 1 0.4 0.3 0.4
1048 2 0.55 0.25 0.35
1049 1 0.5 0.2 0.4
1050 2 0.55 0.25 0.45
1069 1 0.5 0.3 0.4
1248 2 0.65 0.25 0.35
1249 1 0.6 0.2 0.4
1250 2 0.65 0.25 0.45
1269 1 0.6 0.3 0.4
1448 2 0.75 0.25 0.35
1449 1 0.7 0.2 0.4
1450 2 0.75 0.25 0.45
1469 1 0.7 0.3 0.4
1649 1 0.8 0.2 0.4
1669 1 0.8 0.3 0.4
1648 2 0.85 0.25 0.35
1650 2 0.85 0.25 0.45
1848 2 0.95 0.25 0.35
1849 1 0.9 0.2 0.4
1850 2 0.95 0.25 0.45
1869 1 0.9 0.3 0.4
68 2 0.05 0.35 0.35
70 2 0.05 0.35 0.45
88 2 0.05 0.45 0.35
89 1 0 0.4 0.4
90 2 0.05 0.45 0.45
268 2 0.15 0.35 0.35
270 2 0.15 0.35 0.45
288 2 0.15 0.45 0.35
289 1 0.1 0.4 0.4
290 2 0.15 0.45 0.45
468 2 0.25 0.35 0.35
470 2 0.25 0.35 0.45
488 2 0.25 0.45 0.35
489 1 0.2 0.4 0.4
490 2 0.25 0.45 0.45
689 1 0.3 0.4 0.4
668 2 0.35 0.35 0.35
670 2 0.35 0.35 0.45
688 2 0.35 0.45 0.35
690 2 0.35 0.45 0.45
868 2 0.45 0.35 0.35
870 2 0.45 0.35 0.45
888 2 0.45 0.45 0.35
889 1 0.4 0.4 0.4
890 2 0.45 0.45 0.45
1068 2 0.55 0.35 0.35
1070 2 0.55 0.35 0.45
1088 2 0.55 0.45 0.35
1089 1 0.5 0.4 0.4
1090 2 0.55 0.45 0.45
1268 2 0.65 0.35 0.35
1270 2 0.65 0.35 0.45
1288 2 0.65 0.45 0.35
1289 1 0.6 0.4 0.4
1290 2 0.65 0.45 0.45
1468 2 0.75 0.35 0.35
1470 2 0.75 0.35 0.45
1488 2 0.75 0.45 0.35
1489 1 0.7 0.4 0.4
1490 2 0.75 0.45 0.45
1689 1 0.8 0.4 0.4
1668 2 0.85 0.35 0.35
1670 2 0.85 0.35 0.45
1688 2 0.85 0.45 0.35
1690 2 0.85 0.45 0.45
1868 2 0.95 0.35 0.35
1870 2 0.95 0.35 0.45
1888 2 0.95 0.45 0.35
1889 1 0.9 0.4 0.4
1890 2 0.95 0.45 0.45
108 2 0.05 0.55 0.35
109 1 0 0.5 0.4
110 2 0.05 0.55 0.45
128 2 0.05 0.65 0.35
129 1 0 0.6 0.4
130 2 0.05 0.65 0.45
308 2 0.15 0.55 0.35
309 1 0.1 0.5 0.4
310 2 0.15 0.55 0.45
328 2 0.15 0.65 0.35
329 1 0.1 0.6 0.4
330 2 0.15 0.65 0.45
508 2 0.25 0.55 0.35
509 1 0.2 0.5 0.4
510 2 0.25 0.55 0.45
528 2 0.25 0.65 0.35
529 1 0.2 0.6 0.4
530 2 0.25 0.65 0.45
709 1 0.3 0.5 0.4
729 1 0.3 0.6 0.4
708 2 0.35 0.55 0.35
710 2 0.35 0.55 0.45
728 2 0.35 0.65 0.35
730 2 0.35 0.65 0.45
908 2 0.45 0.55 0.35
909 1 0.4 0.5 0.4
910 2 0.45 0.55 0.45
928 2 0.45 0.65 0.35
929 1 0.4 0.6 0.4
930 2 0.45 0.65 0.45
1108 2 0.55 0.55 0.35
1109 1 0.5 0.5 0.4
1110 2 0.55 0.55 0.45
1128 2 0.55 0.65 0.35
1129 1 0.5 0.6 0.4
1130 2 0.55 0.65 0.45
1308 2 0.65 0.55 0.35
1309 1 0.6 0.5 0.4
1310 2 0.65 0.55 0.45
1328 2 0.65 0.65 0.35
1329 1 0.6 0.6 0.4
1330 2 0.65 0.65 0.45
1508 2 0.75 0.55 0.35
1509 1 0.7 0.5 0.4
1510 2 0.75 0.55 0.45
1528 2 0.75 0.65 0.35
1529 1 0.7 0.6 0.4
1530 2 0.75 0.65 0.45
1709 1 0.8 0.5 0.4
1729 1 0.8 0.6 0.4
1708 2 0.85 0.55 0.35
1710 2 0.85 0.55 0.45
1728 2 0.85 0.65 0.35
1730 2 0.85 0.65 0.45
1908 2 0.95 0.55 0.35
1909 1 0.9 0.5 0.4
1910 2 0.95 0.55 0.45
1928 2 0.95 0.65 0.35
1929 1 0.9 0.6 0.4
1930 2 0.95 0.65 0.45
148 2 0.05 0.75 0.35
149 1 0 0.7 0.4
150 2 0.05 0.75 0.45
169 1 0 0.8 0.4
348 2 0.15 0.75 0.35
349 1 0.1 0.7 0.4
350 2 0.15 0.75 0.45
369 1 0.1 0.8 0.4
548 2 0.25 0.75 0.35
549 1 0.2 0.7 0.4
550 2 0.25 0.75 0.45
569 1 0.2 0.8 0.4
749 1 0.3 0.7 0.4
769 1 0.3 0.8 0.4
748 2 0.35 0.75 0.35
750 2 0.35 0.75 0.45
948 2 0.45 0.75 0.35
949 1 0.4 0.7 0.4
950 2 0.45 0.75 0.45
969 1 0.4 0.8 0.4
1148 2 0.55 0.75 0.35
1149 1 0.5 0.7 0.4
1150 2 0.55 0.75 0.45
1169 1 0.5 0.8 0.4
1348 2 0.65 0.75 0.35
1349 1 0.6 0.7 0.4
1350 2 0.65 0.75 0.45
1369 1 0.6 0.8 0.4
1548 2 0.75 0.75 0.35
1549 1 0.7 0.7 0.4
1550 2 0.75 0.75 0.45
1569 1 0.7 0.8 0.4
1749 1 0.8 0.7 0.4
1769 1 0.8 0.8 0.4
1748 2 0.85 0.75 0.35
1750 2 0.85 0.75 0.45
1948 2 0.95 0.75 0.35
1949 1 0.9 0.7 0.4
1950 2 0.95 0.75 0.45
1969 1 0.9 0.8 0.4
168 2 0.05 0.85 0.35
170 2 0.05 0.85 0.45
188 2 0.05 0.95 0.35
189 1 0 0.9 0.4
190 2 0.05 0.95 0.45
368 2 0.15 0.85 0.35
370 2 0.15 0.85 0.45
388 2 0.15 0.95 0.35
389 1 0.1 0.9 0.4
390 2 0.15 0.95 0.45
568 2 0.25 0.85 0.35
570 2 0.25 0.85 0.45
588 2 0.25 0.95 0.35
589 1 0.2 0.9 0.4
590 2 0.25 0.95 0.45
789 1 0.3 0.9 0.4
768 2 0.35 0.85 0.35
770 2 0.35 0.85 0.45
788 2 0.35 0.95 0.35
790 2 0.35 0.95 0.45
968 2 0.45 0.85 0.35
970 2 0.45 0.85 0.45
988 2 0.45 0.95 0.35
989 1 0.4 0.9 0.4
990 2 0.45 0.95 0.45
1168 2 0.55 0.85 0.35
1170 2 0.55 0.85 0.45
1188 2 0.55 0.95 0.35
1189 1 0.5 0.9 0.4
1190 2 0.55 0.95 0.45
1368 2 0.65 0.85 0.35
1370 2 0.65 0.85 0.45
1388 2 0.65 0.95 0.35
1389 1 0.6 0.9 0.4
1390 2 0.65 0.95 0.45
1568 2 0.75 0.85 0.35
1570 2 0.75 0.85 0.45
1588 2 0.75 0.95 0.35
1589 1 0.7 0.9 0.4
1590 2 0.75 0.95 0.45
1789 1 0.8 0.9 0.4
1768 2 0.85 0.85 0.35
1770 2 0.85 0.85 0.45
1788 2 0.85 0.95 0.35
1790 2 0.85 0.95 0.45
1968 2 0.95 0.85 0.35
1970 2 0.95 0.85 0.45
1988 2 0.95 0.95 0.35
1989 1 0.9 0.9 0.4
1990 2 0.95 0.95 0.45
11 1 0 0 0.5
12 2 0.05 0.05 0.55
13 1 0 0 0.6
14 2 0.05 0.05 0.65
31 1 0 0.1 0.5
32 2 0.05 0.15 0.55
33 1 0 0.1 0.6
34 2 0.05 0.15 0.65
211 1 0.1 0 0.5
212 2 0.15 0.05 0.55
213 1 0.1 0 0.6
214 2 0.15 0.05 0.65
231 1 0.1 0.1 0.5
232 2 0.15 0.15 0.55
233 1 0.1 0.1 0.6
234 2 0.15 0.15 0.65
411 1 0.2 0 0.5
412 2 0.25 0.05 0.55
413 1 0.2 0 0.6
414 2 0.25 0.05 0.65
431 1 0.2 0.1 0.5
432 2 0.25 0.15 0.55
433 1 0.2 0.1 0.6
434 2 0.25 0.15 0.65
611 1 0.3 0 0.5
613 1 0.3 0 0.6
631 1 0.3 0.1 0.5
633 1 0.3 0.1 0.6
612 2 0.35 0.05 0.55
614 2 0.35 0.05 0.65
632 2 0.35 0.15 0.55
634 2 0.35 0.15 0.65
811 1 0.4 0 0.5
812 2 0.45 0.05 0.55
813 1 0.4 0 0.6
814 2 0.45 0.05 0.65
831 1 0.4 0.1 0.5
832 2 0.45 0.15 0.55
833 1 0.4 0.1 0.6
834 2 0.45 0.15 0.65
1011 1 0.5 0 0.5
1012 2 0.55 0.05 0.55
1013 1 0.5 0 0.6
1014 2 0.55 0.05 0.65
1031 1 0.5 0.1 0.5
1032 2 0.55 0.15 0.55
1033 1 0.5 0.1 0.6
1034 2 0.55 0.15 0.65
1211 1 0.6 0 0.5
1212 2 0.65 0.05 0.55
1213 1 0.6 0 0.6
1214 2 0.65 0.05 0.65
1231 1 0.6 0.1 0.5
1232 2 0.65 0.15 0.55
1233 1 0.6 0.1 0.6
1234 2 0.65 0.15 0.65
1411 1 0.7 0 0.5
1412 2 0.75 0.05 0.55
1413 1 0.7 0 0.6
1414 2 0.75 0.05 0.65
1431 1 0.7 0.1 0.5
1432 2 0.75 0.15 0.55
1433 1 0.7 0.1 0.6
1434 2 0.75 0.15 0.65
1611 1 0.8 0 0.5
1613 1 0.8 0 0.6
1631 1 0.8 0.1 0.5
1633 1 0.8 0.1 0.6
1612 2 0.85 0.05 0.55
1614 2 0.85 0.05 0.65
1632 2 0.85 0.15 0.55
1634 2 0.85 0.15 0.65
1811 1 0.9 0 0.5
1812 2 0.95 0.05 0.55
1813 1 0.9 0 0.6
1814 2 0.95 0.05 0.65
1831 1 0.9 0.1 0.5
1832 2 0.95 0.15 0.55
1833 1 0.9 0.1 0.6
1834 2 0.95 0.15 0.65
51 1 0 0.2 0.5
52 2 0.05 0.25 0.55
53 1 0 0.2 0.6
54 2 0.05 0.25 0.65
71 1 0 0.3 0.5
73 1 0 0.3 0.6
251 1 0.1 0.2 0.5
252 2 0.15 0.25 0.55
253 1 0.1 0.2 0.6
254 2 0.15 0.25 0.65
271 1 0.1 0.3 0.5
273 1 0.1 0.3 0.6
451 1 0.2 0.2 0.5
452 2 0.25 0.25 0.55
453 1 0.2 0.2 0.6
454 2 0.25 0.25 0.65
471 1 0.2 0.3 0.5
473 1 0.2 0.3 0.6
651 1 0.3 0.2 0.5
653 1 0.3 0.2 0.6
671 1 0.3 0.3 0.5
673 1 0.3 0.3 0.6
652 2 0.35 0.25 0.55
654 2 0.35 0.25 0.65
851 1 0.4 0.2 0.5
852 2 0.45 0.25 0.55
853 1 0.4 0.2 0.6
854 2 0.45 0.25 0.65
871 1 0.4 0.3 0.5
873 1 0.4 0.3 0.6
1051 1 0.5 0.2 0.5
1052 2 0.55 0.25 0.55
1053 1 0.5 0.2 0.6
1054 2 0.55 0.25 0.65
1071 1 0.5 0.3 0.5
1073 1 0.5 0.3 0.6
1251 1 0.6 0.2 0.5
1252 2 0.65 0.25 0.55
1253 1 0.6 0.2 0.6
1254 2 0.65 0.25 0.65
1271 1 0.6 0.3 0.5
1273 1 0.6 0.3 0.6
1451 1 0.7 0.2 0.5
1452 2 0.75 0.25 0.55
1453 1 0.7 0.2 0.6
1454 2 0.75 0.25 0.65
1471 1 0.7 0.3 0.5
1473 1 0.7 0.3 0.6
1651 1 0.8 0.2 0.5
1653 1 0.8 0.2 0.6
1671 1 0.8 0.3 0.5
1673 1 0.8 0.3 0.6
1652 2 0.85 0.25 0.55
1654 2 0.85 0.25 0.65
1851 1 0.9 0.2 0.5
1852 2 0.95 0.25 0.55
1853 1 0.9 0.2 0.6
1854 2 0.95 0.25 0.65
1871 1 0.9 0.3 0.5
1873 1 0.9 0.3 0.6
72 2 0.05 0.35 0.55
74 2 0.05 0.35 0.65
91 1 0 0.4 0.5
92 2 0.05 0.45 0.55
93 1 0 0.4 0.6
94 2 0.05 0.45 0.65
272 2 0.15 0.35 0.55
274 2 0.15 0.35 0.65
291 1 0.1 0.4 0.5
292 2 0.15 0.45 0.55
293 1 0.1 0.4 0.6
294 2 0.15 0.45 0.65
472 2 0.25 0.35 0.55
474 2 0.25 0.35 0.65
491 1 0.2 0.4 0.5
492 2 0.25 0.45 0.55
493 1 0.2 0.4 0.6
494 2 0.25 0.45 0.65
691 1 0.3 0.4 0.5
693 1 0.3 0.4 0.6
672 2 0.35 0.35 0.55
674 2 0.35 0.35 0.65
692 2 0.35 0.45 0.55
694 2 0.35 0.45 0.65
872 2 0.45 0.35 0.55
874 2 0.45 0.35 0.65
891 1 0.4 0.4 0.5
892 2 0.45 0.45 0.55
893 1 0.4 0.4 0.6
894 2 0.45 0.45 0.65
1072 2 0.55 0.35 0.55
1074 2 0.55 0.35 0.65
1091 1 0.5 0.4 0.5
1092 2 0.55 0.45 0.55
1093 1 0.5 0.4 0.6
1094 2 0.55 0.45 0.65
1272 2 0.65 0.35 0.55
1274 2 0.65 0.35 0.65
1291 1 0.6 0.4 0.5
1292 2 0.65 0.45 0.55
1293 1 0.6 0.4 0.6
1294 2 0.65 0.45 0.65
1472 2 0.75 0.35 0.55
1474 2 0.75 0.35 0.65
1491 1 0.7 0.4 0.5
1492 2 0.75 0.45 0.55
1493 1 0.7 0.4 0.6
1494 2 0.75 0.45 0.65
1691 1 0.8 0.4 0.5
1693 1 0.8 0.4 0.6
1672 2 0.85 0.35 0.55
1674 2 0.85 0.35 0.65
1692 2 0.85 0.45 0.55
1694 2 0.85 0.45 0.65
1872 2 0.95 0.35 0.55
1874 2 0.95 0.35 0.65
1891 1 0.9 0.4 0.5
1892 2 0.95 0.45 0.55
1893 1 0.9 0.4 0.6
1894 2 0.95 0.45 0.65
111 1 0 0.5 0.5
112 2 0.05 0.55 0.55
113 1 0 0.5 0.6
114 2 0.05 0.55 0.65
131 1 0 0.6 0.5
132 2 0.05 0.65 0.55
133 1 0 0.6 0.6
134 2 0.05 0.65 0.65
311 1 0.1 0.5 0.5
312 2 0.15 0.55 0.55
313 1 0.1 0.5 0.6
314 2 0.15 0.55 0.65
331 1 0.1 0.6 0.5
332 2 0.15 0.65 0.55
333 1 0.1 0.6 0.6
334 2 0.15 0.65 0.65
511 1 0.2 0.5 0.5
512 2 0.25 0.55 0.55
513 1 0.2 0.5 0.6
514 2 0.25 0.55 0.65
531 1 0.2 0.6 0.5
532 2 0.25 0.65 0.55
533 1 0.2 0.6 0.6
534 2 0.25 0.65 0.65
711 1 0.3 0.5 0.5
713 1 0.3 0.5 0.6
731 1 0.3 0.6 0.5
733 1 0.3 0.6 0.6
712 2 0.35 0.55 0.55
714 2 0.35 0.55 0.65
732 2 0.35 0.65 0.55
734 2 0.35 0.65 0.65
911 1 0.4 0.5 0.5
912 2 0.45 0.55 0.55
913 1 0.4 0.5 0.6
914 2 0.45 0.55 0.65
931 1 0.4 0.6 0.5
932 2 0.45 0.65 0.55
933 1 0.4 0.6 0.6
934 2 0.45 0.65 0.65
1111 1 0.5 0.5 0.5
1112 2 0.55 0.55 0.55
1113 1 0.5 0.5 0.6
1114 2 0.55 0.55 0.65
1131 1 0.5 0.6 0.5
1132 2 0.55 0.65 0.55
1133 1 0.5 0.6 0.6
1134 2 0.55 0.65 0.65
1311 1 0.6 0.5 0.5
1312 2 0.65 0.55 0.55
1313 1 0.6 0.5 0.6
1314 2 0.65 0.55 0.65
1331 1 0.6 0.6 0.5
1332 2 0.65 0.65 0.55
1333 1 0.6 0.6 0.6
1334 2 0.65 0.65 0.65
1511 1 0.7 0.5 0.5
1512 2 0.75 0.55 0.55
1513 1 0.7 0.5 0.6
1514 2 0.75 0.55 0.65
1531 1 0.7 0.6 0.5
1532 2 0.75 0.65 0.55
1533 1 0.7 0.6 0.6
1534 2 0.75 0.65 0.65
1711 1 0.8 0.5 0.5
1713 1 0.8 0.5 0.6
1731 1 0.8 0.6 0.5
1733 1 0.8 0.6 0.6
1712 2 0.85 0.55 0.55
1714 2 0.85 0.55 0.65
1732 2 0.85 0.65 0.55
1734 2 0.85 0.65 0.65
1911 1 0.9 0.5 0.5
1912 2 0.95 0.55 0.55
1913 1 0.9 0.5 0.6
1914 2 0.95 0.55 0.65
1931 1 0.9 0.6 0.5
1932 2 0.95 0.65 0.55
1933 1 0.9 0.6 0.6
1934 2 0.95 0.65 0.65
151 1 0 0.7 0.5
152 2 0.05 0.75 0.55
153 1 0 0.7 0.6
154 2 0.05 0.75 0.65
171 1 0 0.8 0.5
173 1 0 0.8 0.6
351 1 0.1 0.7 0.5
352 2 0.15 0.75 0.55
353 1 0.1 0.7 0.6
354 2 0.15 0.75 0.65
371 1 0.1 0.8 0.5
373 1 0.1 0.8 0.6
551 1 0.2 0.7 0.5
552 2 0.25 0.75 0.55
553 1 0.2 0.7 0.6
554 2 0.25 0.75 0.65
571 1 0.2 0.8 0.5
573 1 0.2 0.8 0.6
751 1 0.3 0.7 0.5
753 1 0.3 0.7 0.6
771 1 0.3 0.8 0.5
773 1 0.3 0.8 0.6
752 2 0.35 0.75 0.55
754 2 0.35 0.75 0.65
951 1 0.4 0.7 0.5
952 2 0.45 0.75 0.55
953 1 0.4 0.7 0.6
954 2 0.45 0.75 0.65
971 1 0.4 0.8 0.5
973 1 0.4 0.8 0.6
1151 1 0.5 0.7 0.5
1152 2 0.55 0.75 0.55
1153 1 0.5 0.7 0.6
1154 2 0.55 0.75 0.65
1171 1 0.5 0.8 0.5
1173 1 0.5 0.8 0.6
1351 1 0.6 0.7 0.5
1352 2 0.65 0.75 0.55
1353 1 0.6 0.7 0.6
1354 2 0.65 0.75 0.65
1371 1 0.6 0.8 0.5
1373 1 0.6 0.8 0.6
1551 1 0.7 0.7 0.5
1552 2 0.75 0.75 0.55
1553 1 0.7 0.7 0.6
1554 2 0.75 0.75 0.65
1571 1 0.7 0.8 0.5
1573 1 0.7 0.8 0.6
1751 1 0.8 0.7 0.5
1753 1 0.8 0.7 0.6
1771 1 0.8 0.8 0.5
1773 1 0.8 0.8 0.6
1752 2 0.85 0.75 0.55
1754 2 0.85 0.75 0.65
1951 1 0.9 0.7 0.5
1952 2 0.95 0.75 0.55
1953 1 0.9 0.7 0.6
1954 2 0.95 0.75 0.65
1971 1 0.9 0.8 0.5
1973 1 0.9 0.8 0.6
172 2 0.05 0.85 0.55
174 2 0.05 0.85 0.65
191 1 0 0.9 0.5
192 2 0.05 0.95 0.55
193 1 0 0.9 0.6
194 2 0.05 0.95 0.65
372 2 0.15 0.85 0.55
374 2 0.15 0.85 0.65
391 1 0.1 0.9 0.5
392 2 0.15 0.95 0.55
393 1 0.1 0.9 0.6
394 2 0.15 0.95 0.65
572 2 0.25 0.85 0.55
574 2 0.25 0.85 0.65
591 1 0.2 0.9 0.5
592 2 0.25 0.95 0.55
593 1 0.2 0.9 0.6
594 2 0.25 0.95 0.65
791 1 0.3 0.9 0.5
793 1 0.3 0.9 0.6
772 2 0.35 0.85 0.55
774 2 0.35 0.85 0.65
792 2 0.35 0.95 0.55
794 2 0.35 0.95 0.65
972 2 0.45 0.85 0.55
974 2 0.45 0.85 0.65
991 1 0.4 0.9 0.5
992 2 0.45 0.95 0.55
993 1 0.4 0.9 0.6
994 2 0.45 0.95 0.65
1172 2 0.55 0.85 0.55
1174 2 0.55 0.85 0.65
1191 1 0.5 0.9 0.5
1192 2 0.55 0.95 0.55
1193 1 0.5 0.9 0.6
1194 2 0.55 0.95 0.65
1372 2 0.65 0.85 0.55
1374 2 0.65 0.85 0.65
1391 1 0.6 0.9 0.5
1392 2 0.65 0.95 0.55
1393 1 0.6 0.9 0.6
1394 2 0.65 0.95 0.65
1572 2 0.75 0.85 0.55
1574 2 0.75 0.85 0.65
1591 1 0.7 0.9 0.5
1592 2 0.75 0.95 0.55
1593 1 0.7 0.9 0.6
1594 2 0.75 0.95 0.65
1791 1 0.8 0.9 0.5
1793 1 0.8 0.9 0.6
1772 2 0.85 0.85 0.55
1774 2 0.85 0.85 0.65
1792 2 0.85 0.95 0.55
1794 2 0.85 0.95 0.65
1972 2 0.95 0.85 0.55
1974 2 0.95 0.85 0.65
1991 1 0.9 0.9 0.5
1992 2 0.95 0.95 0.55
1993 1 0.9 0.9 0.6
1994 2 0.95 0.95 0.65
15 1 0 0 0.7
16 2 0.05 0.05 0.75
17 1 0 0 0.8
35 1 0 0.1 0.7
36 2 0.05 0.15 0.75
37 1 0 0.1 0.8
215 1 0.1 0 0.7
216 2 0.15 0.05 0.75
217 1 0.1 0 0.8
235 1 0.1 0.1 0.7
236 2 0.15 0.15 0.75
237 1 0.1 0.1 0.8
415 1 0.2 0 0.7
416 2 0.25 0.05 0.75
417 1 0.2 0 0.8
435 1 0.2 0.1 0.7
436 2 0.25 0.15 0.75
437 1 0.2 0.1 0.8
615 1 0.3 0 0.7
617 1 0.3 0 0.8
635 1 0.3 0.1 0.7
637 1 0.3 0.1 0.8
616 2 0.35 0.05 0.75
636 2 0.35 0.15 0.75
815 1 0.4 0 0.7
816 2 0.45 0.05 0.75
817 1 0.4 0 0.8
835 1 0.4 0.1 0.7
836 2 0.45 0.15 0.75
837 1 0.4 0.1 0.8
1015 1 0.5 0 0.7
1016 2 0.55 0.05 0.75
1017 1 0.5 0 0.8
1035 1 0.5 0.1 0.7
1036 2 0.55 0.15 0.75
1037 1 0.5 0.1 0.8
1215 1 0.6 0 0.7
1216 2 0.65 0.05 0.75
1217 1 0.6 0 0.8
1235 1 0.6 0.1 0.7
1236 2 0.65 0.15 0.75
1237 1 0.6 0.1 0.8
1415 1 0.7 0 0.7
1416 2 0.75 0.05 0.75
1417 1 0.7 0 0.8
1435 1 0.7 0.1 0.7
1436 2 0.75 0.15 0.75
1437 1 0.7 0.1 0.8
1615 1 0.8 0 0.7
1617 1 0.8 0 0.8
1635 1 0.8 0.1 0.7
1637 1 0.8 0.1 0.8
1616 2 0.85 0.05 0.75
1636 2 0.85 0.15 0.75
1815 1 0.9 0 0.7
1816 2 0.95 0.05 0.75
1817 1 0.9 0 0.8
1835 1 0.9 0.1 0.7
1836 2 0.95 0.15 0.75
1837 1 0.9 0.1 0.8
55 1 0 0.2 0.7
56 2 0.05 0.25 0.75
57 1 0 0.2 0.8
75 1 0 0.3 0.7
77 1 0 0.3 0.8
255 1 0.1 0.2 0.7
256 2 0.15 0.25 0.75
257 1 0.1 0.2 0.8
275 1 0.1 0.3 0.7
277 1 0.1 0.3 0.8
455 1 0.2 0.2 0.7
456 2 0.25 0.25 0.75
457 1 0.2 0.2 0.8
475 1 0.2 0.3 0.7
477 1 0.2 0.3 0.8
655 1 0.3 0.2 0.7
657 1 0.3 0.2 0.8
675 1 0.3 0.3 0.7
677 1 0.3 0.3 0.8
656 2 0.35 0.25 0.75
855 1 0.4 0.2 0.7
856 2 0.45 0.25 0.75
857 1 0.4 0.2 0.8
875 1 0.4 0.3 0.7
877 1 0.4 0.3 0.8
1055 1 0.5 0.2 0.7
1056 2 0.55 0.25 0.75
1057 1 0.5 0.2 0.8
1075 1 0.5 0.3 0.7
1077 1 0.5 0.3 0.8
1255 1 0.6 0.2 0.7
1256 2 0.65 0.25 0.75
1257 1 0.6 0.2 0.8
1275 1 0.6 0.3 0.7
1277 1 0.6 0.3 0.8
1455 1 0.7 0.2 0.7
1456 2 0.75 0.25 0.75
1457 1 0.7 0.2 0.8
1475 1 0.7 0.3 0.7
1477 1 0.7 0.3 0.8
1655 1 0.8 0.2 0.7
1657 1 0.8 0.2 0.8
1675 1 0.8 0.3 0.7
1677 1 0.8 0.3 0.8
1656 2 0.85 0.25 0.75
1855 1 0.9 0.2 0.7
1856 2 0.95 0.25 0.75
1857 1 0.9 0.2 0.8
1875 1 0.9 0.3 0.7
1877 1 0.9 0.3 0.8
76 2 0.05 0.35 0.75
95 1 0 0.4 0.7
96 2 0.05 0.45 0.75
97 1 0 0.4 0.8
276 2 0.15 0.35 0.75
295 1 0.1 0.4 0.7
296 2 0.15 0.45 0.75
297 1 0.1 0.4 0.8
476 2 0.25 0.35 0.75