ITEM: TIMESTEP
0
ITEM: NUMBER OF ATOMS
2000
ITEM: BOX BOUNDS xy xz yz pp pp pp
0.0000000000000000e+00 2.8199999999999999e+01 0.0000000000000000e+00
0.0000000000000000e+00 2.8199999999999999e+01 0.0000000000000000e+00
0.0000000000000000e+00 2.8199999999999999e+01 0.0000000000000000e+00
ITEM: ATOMS id type f_avePos[1] f_avePos[2] f_avePos[3]
1 1 0 0 0
2 2 0 0 0
3 1 0 0 0
4 2 0 0 0
21 1 0 0 0
22 2 0 0 0
23 1 0 0 0
24 2 0 0 0
201 1 0 0 0
202 2 0 0 0
203 1 0 0 0
204 2 0 0 0
221 1 0 0 0
222 2 0 0 0
223 1 0 0 0
224 2 0 0 0
401 1 0 0 0
402 2 0 0 0
403 1 0 0 0
404 2 0 0 0
421 1 0 0 0
422 2 0 0 0
423 1 0 0 0
424 2 0 0 0
601 1 0 0 0
603 1 0 0 0
621 1 0 0 0
623 1 0 0 0
602 2 0 0 0
604 2 0 0 0
622 2 0 0 0
624 2 0 0 0
801 1 0 0 0
802 2 0 0 0
803 1 0 0 0
804 2 0 0 0
821 1 0 0 0
822 2 0 0 0
823 1 0 0 0
824 2 0 0 0
1001 1 0 0 0
1002 2 0 0 0
1003 1 0 0 0
1004 2 0 0 0
1021 1 0 0 0
1022 2 0 0 0
1023 1 0 0 0
1024 2 0 0 0
1201 1 0 0 0
1202 2 0 0 0
1203 1 0 0 0
1204 2 0 0 0
1221 1 0 0 0
1222 2 0 0 0
1223 1 0 0 0
1224 2 0 0 0
1401 1 0 0 0
1402 2 0 0 0
1403 1 0 0 0
1404 2 0 0 0
1421 1 0 0 0
1422 2 0 0 0
1423 1 0 0 0
1424 2 0 0 0
1601 1 0 0 0
1603 1 0 0 0
1621 1 0 0 0
1623 1 0 0 0
1602 2 0 0 0
1604 2 0 0 0
1622 2 0 0 0
1624 2 0 0 0
1801 1 0 0 0
1802 2 0 0 0
1803 1 0 0 0
1804 2 0 0 0
1821 1 0 0 0
1822 2 0 0 0
1823 1 0 0 0
1824 2 0 0 0
41 1 0 0 0
42 2 0 0 0
43 1 0 0 0
44 2 0 0 0
61 1 0 0 0
63 1 0 0 0
241 1 0 0 0
242 2 0 0 0
243 1 0 0 0
244 2 0 0 0
261 1 0 0 0
263 1 0 0 0
441 1 0 0 0
442 2 0 0 0
443 1 0 0 0
444 2 0 0 0
461 1 0 0 0
463 1 0 0 0
641 1 0 0 0
643 1 0 0 0
661 1 0 0 0
663 1 0 0 0
642 2 0 0 0
644 2 0 0 0
841 1 0 0 0
842 2 0 0 0
843 1 0 0 0
844 2 0 0 0
861 1 0 0 0
863 1 0 0 0
1041 1 0 0 0
1042 2 0 0 0
1043 1 0 0 0
1044 2 0 0 0
1061 1 0 0 0
1063 1 0 0 0
1241 1 0 0 0
1242 2 0 0 0
1243 1 0 0 0
1244 2 0 0 0
1261 1 0 0 0
1263 1 0 0 0
1441 1 0 0 0
1442 2 0 0 0
1443 1 0 0 0
1444 2 0 0 0
1461 1 0 0 0
1463 1 0 0 0
1641 1 0 0 0
1643 1 0 0 0
1661 1 0 0 0
1663 1 0 0 0
1642 2 0 0 0
1644 2 0 0 0
1841 1 0 0 0
1842 2 0 0 0
1843 1 0 0 0
1844 2 0 0 0
1861 1 0 0 0
1863 1 0 0 0
62 2 0 0 0
64 2 0 0 0
81 1 0 0 0
82 2 0 0 0
83 1 0 0 0
84 2 0 0 0
262 2 0 0 0
264 2 0 0 0
281 1 0 0 0
282 2 0 0 0
283 1 0 0 0
284 2 0 0 0
462 2 0 0 0
464 2 0 0 0
481 1 0 0 0
482 2 0 0 0
483 1 0 0 0
484 2 0 0 0
681 1 0 0 0
683 1 0 0 0
662 2 0 0 0
664 2 0 0 0
682 2 0 0 0
684 2 0 0 0
862 2 0 0 0
864 2 0 0 0
881 1 0 0 0
882 2 0 0 0
883 1 0 0 0
884 2 0 0 0
1062 2 0 0 0
1064 2 0 0 0
1081 1 0 0 0
1082 2 0 0 0
1083 1 0 0 0
1084 2 0 0 0
1262 2 0 0 0
1264 2 0 0 0
1281 1 0 0 0
1282 2 0 0 0
1283 1 0 0 0
1284 2 0 0 0
1462 2 0 0 0
1464 2 0 0 0
1481 1 0 0 0
1482 2 0 0 0
1483 1 0 0 0
1484 2 0 0 0
1681 1 0 0 0
1683 1 0 0 0
1662 2 0 0 0
1664 2 0 0 0
1682 2 0 0 0
1684 2 0 0 0
1862 2 0 0 0
1864 2 0 0 0
1881 1 0 0 0
1882 2 0 0 0
1883 1 0 0 0
1884 2 0 0 0
101 1 0 0 0
102 2 0 0 0
103 1 0 0 0
104 2 0 0 0
121 1 0 0 0
122 2 0 0 0
123 1 0 0 0
124 2 0 0 0
301 1 0 0 0
302 2 0 0 0
303 1 0 0 0
304 2 0 0 0
321 1 0 0 0
322 2 0 0 0
323 1 0 0 0
324 2 0 0 0
501 1 0 0 0
502 2 0 0 0
503 1 0 0 0
504 2 0 0 0
521 1 0 0 0
522 2 0 0 0
523 1 0 0 0
524 2 0 0 0
701 1 0 0 0
703 1 0 0 0
721 1 0 0 0
723 1 0 0 0
702 2 0 0 0
704 2 0 0 0
722 2 0 0 0
724 2 0 0 0
901 1 0 0 0
902 2 0 0 0
903 1 0 0 0
904 2 0 0 0
921 1 0 0 0
922 2 0 0 0
923 1 0 0 0
924 2 0 0 0
1101 1 0 0 0
1102 2 0 0 0
1103 1 0 0 0
1104 2 0 0 0
1121 1 0 0 0
1122 2 0 0 0
1123 1 0 0 0
1124 2 0 0 0
1301 1 0 0 0
1302 2 0 0 0
1303 1 0 0 0
1304 2 0 0 0
1321 1 0 0 0
1322 2 0 0 0
1323 1 0 0 0
1324 2 0 0 0
1501 1 0 0 0
1502 2 0 0 0
1503 1 0 0 0
1504 2 0 0 0
1521 1 0 0 0
1522 2 0 0 0
1523 1 0 0 0
1524 2 0 0 0
1701 1 0 0 0
1703 1 0 0 0
1721 1 0 0 0
1723 1 0 0 0
1702 2 0 0 0
1704 2 0 0 0
1722 2 0 0 0
1724 2 0 0 0
1901 1 0 0 0
1902 2 0 0 0
1903 1 0 0 0
1904 2 0 0 0
1921 1 0 0 0
1922 2 0 0 0
1923 1 0 0 0
1924 2 0 0 0
141 1 0 0 0
142 2 0 0 0
143 1 0 0 0
144 2 0 0 0
161 1 0 0 0
163 1 0 0 0
341 1 0 0 0
342 2 0 0 0
343 1 0 0 0
344 2 0 0 0
361 1 0 0 0
363 1 0 0 0
541 1 0 0 0
542 2 0 0 0
543 1 0 0 0
544 2 0 0 0
561 1 0 0 0
563 1 0 0 0
741 1 0 0 0
743 1 0 0 0
761 1 0 0 0
763 1 0 0 0
742 2 0 0 0
744 2 0 0 0
941 1 0 0 0
942 2 0 0 0
943 1 0 0 0
944 2 0 0 0
961 1 0 0 0
963 1 0 0 0
1141 1 0 0 0
1142 2 0 0 0
1143 1 0 0 0
1144 2 0 0 0
1161 1 0 0 0
1163 1 0 0 0
1341 1 0 0 0
1342 2 0 0 0
1343 1 0 0 0
1344 2 0 0 0
1361 1 0 0 0
1363 1 0 0 0
1541 1 0 0 0
1542 2 0 0 0
1543 1 0 0 0
1544 2 0 0 0
1561 1 0 0 0
1563 1 0 0 0
1741 1 0 0 0
1743 1 0 0 0
1761 1 0 0 0
1763 1 0 0 0
1742 2 0 0 0
1744 2 0 0 0
1941 1 0 0 0
1942 2 0 0 0
1943 1 0 0 0
1944 2 0 0 0
1961 1 0 0 0
1963 1 0 0 0
162 2 0 0 0
164 2 0 0 0
181 1 0 0 0
182 2 0 0 0
183 1 0 0 0
184 2 0 0 0
362 2 0 0 0
364 2 0 0 0
381 1 0 0 0
382 2 0 0 0
383 1 0 0 0
384 2 0 0 0
562 2 0 0 0
564 2 0 0 0
581 1 0 0 0
582 2 0 0 0
583 1 0 0 0
584 2 0 0 0
781 1 0 0 0
783 1 0 0 0
762 2 0 0 0
764 2 0 0 0
782 2 0 0 0
784 2 0 0 0
962 2 0 0 0
964 2 0 0 0
981 1 0 0 0
982 2 0 0 0
983 1 0 0 0
984 2 0 0 0
1162 2 0 0 0
1164 2 0 0 0
1181 1 0 0 0
1182 2 0 0 0
1183 1 0 0 0
1184 2 0 0 0
1362 2 0 0 0
1364 2 0 0 0
1381 1 0 0 0
1382 2 0 0 0
1383 1 0 0 0
1384 2 0 0 0
1562 2 0 0 0
1564 2 0 0 0
1581 1 0 0 0
1582 2 0 0 0
1583 1 0 0 0
1584 2 0 0 0
1781 1 0 0 0
1783 1 0 0 0
1762 2 0 0 0
1764 2 0 0 0
1782 2 0 0 0
1784 2 0 0 0
1962 2 0 0 0
1964 2 0 0 0
1981 1 0 0 0
1982 2 0 0 0
1983 1 0 0 0
1984 2 0 0 0
5 1 0 0 0
6 2 0 0 0
7 1 0 0 0
25 1 0 0 0
26 2 0 0 0
27 1 0 0 0
205 1 0 0 0
206 2 0 0 0
207 1 0 0 0
225 1 0 0 0
226 2 0 0 0
227 1 0 0 0
405 1 0 0 0
406 2 0 0 0
407 1 0 0 0
425 1 0 0 0
426 2 0 0 0
427 1 0 0 0
605 1 0 0 0
607 1 0 0 0
625 1 0 0 0
627 1 0 0 0
606 2 0 0 0
626 2 0 0 0
805 1 0 0 0
806 2 0 0 0
807 1 0 0 0
825 1 0 0 0
826 2 0 0 0
827 1 0 0 0
1005 1 0 0 0
1006 2 0 0 0
1007 1 0 0 0
1025 1 0 0 0
1026 2 0 0 0
1027 1 0 0 0
1205 1 0 0 0
1206 2 0 0 0
1207 1 0 0 0
1225 1 0 0 0
1226 2 0 0 0
1227 1 0 0 0
1405 1 0 0 0
1406 2 0 0 0
1407 1 0 0 0
1425 1 0 0 0
1426 2 0 0 0
1427 1 0 0 0
1605 1 0 0 0
1607 1 0 0 0
1625 1 0 0 0
1627 1 0 0 0
1606 2 0 0 0
1626 2 0 0 0
1805 1 0 0 0
1806 2 0 0 0
1807 1 0 0 0
1825 1 0 0 0
1826 2 0 0 0
1827 1 0 0 0
45 1 0 0 0
46 2 0 0 0
47 1 0 0 0
65 1 0 0 0
67 1 0 0 0
245 1 0 0 0
246 2 0 0 0
247 1 0 0 0
265 1 0 0 0
267 1 0 0 0
445 1 0 0 0
446 2 0 0 0
447 1 0 0 0
465 1 0 0 0
467 1 0 0 0
645 1 0 0 0
647 1 0 0 0
665 1 0 0 0
667 1 0 0 0
646 2 0 0 0
845 1 0 0 0
846 2 0 0 0
847 1 0 0 0
865 1 0 0 0
867 1 0 0 0
1045 1 0 0 0
1046 2 0 0 0
1047 1 0 0 0
1065 1 0 0 0
1067 1 0 0 0
1245 1 0 0 0
1246 2 0 0 0
1247 1 0 0 0
1265 1 0 0 0
1267 1 0 0 0
1445 1 0 0 0
1446 2 0 0 0
1447 1 0 0 0
1465 1 0 0 0
1467 1 0 0 0
1645 1 0 0 0
1647 1 0 0 0
1665 1 0 0 0
1667 1 0 0 0
1646 2 0 0 0
1845 1 0 0 0
1846 2 0 0 0
1847 1 0 0 0
1865 1 0 0 0
1867 1 0 0 0
66 2 0 0 0
85 1 0 0 0
86 2 0 0 0
87 1 0 0 0
266 2 0 0 0
285 1 0 0 0
286 2 0 0 0
287 1 0 0 0
466 2 0 0 0
485 1 0 0 0
486 2 0 0 0
487 1 0 0 0
685 1 0 0 0
687 1 0 0 0
666 2 0 0 0
686 2 0 0 0
866 2 0 0 0
885 1 0 0 0
886 2 0 0 0
887 1 0 0 0
1066 2 0 0 0
1085 1 0 0 0
1086 2 0 0 0
1087 1 0 0 0
1266 2 0 0 0
1285 1 0 0 0
1286 2 0 0 0
1287 1 0 0 0
1466 2 0 0 0
1485 1 0 0 0
1486 2 0 0 0
1487 1 0 0 0
1685 1 0 0 0
1687 1 0 0 0
1666 2 0 0 0
1686 2 0 0 0
1866 2 0 0 0
1885 1 0 0 0
1886 2 0 0 0
1887 1 0 0 0
105 1 0 0 0
106 2 0 0 0
107 1 0 0 0
125 1 0 0 0
126 2 0 0 0
127 1 0 0 0
305 1 0 0 0
306 2 0 0 0
307 1 0 0 0
325 1 0 0 0
326 2 0 0 0
327 1 0 0 0
505 1 0 0 0
506 2 0 0 0
507 1 0 0 0
525 1 0 0 0
526 2 0 0 0
527 1 0 0 0
705 1 0 0 0
707 1 0 0 0
725 1 0 0 0
727 1 0 0 0
706 2 0 0 0
726 2 0 0 0
905 1 0 0 0
906 2 0 0 0
907 1 0 0 0
925 1 0 0 0
926 2 0 0 0
927 1 0 0 0
1105 1 0 0 0
1106 2 0 0 0
1107 1 0 0 0
1125 1 0 0 0
1126 2 0 0 0
1127 1 0 0 0
1305 1 0 0 0
1306 2 0 0 0
1307 1 0 0 0
1325 1 0 0 0
1326 2 0 0 0
1327 1 0 0 0
1505 1 0 0 0
1506 2 0 0 0
1507 1 0 0 0
1525 1 0 0 0
1526 2 0 0 0
1527 1 0 0 0
1705 1 0 0 0
1707 1 0 0 0
1725 1 0 0 0
1727 1 0 0 0
1706 2 0 0 0
1726 2 0 0 0
1905 1 0 0 0
1906 2 0 0 0
1907 1 0 0 0
1925 1 0 0 0
1926 2 0 0 0
1927 1 0 0 0
145 1 0 0 0
146 2 0 0 0
147 1 0 0 0
165 1 0 0 0
167 1 0 0 0
345 1 0 0 0
346 2 0 0 0
347 1 0 0 0
365 1 0 0 0
367 1 0 0 0
545 1 0 0 0
546 2 0 0 0
547 1 0 0 0
565 1 0 0 0
567 1 0 0 0
745 1 0 0 0
747 1 0 0 0
765 1 0 0 0
767 1 0 0 0
746 2 0 0 0
945 1 0 0 0
946 2 0 0 0
947 1 0 0 0
965 1 0 0 0
967 1 0 0 0
1145 1 0 0 0
1146 2 0 0 0
1147 1 0 0 0
1165 1 0 0 0
1167 1 0 0 0
1345 1 0 0 0
1346 2 0 0 0
1347 1 0 0 0
1365 1 0 0 0
1367 1 0 0 0
1545 1 0 0 0
1546 2 0 0 0
1547 1 0 0 0
1565 1 0 0 0
1567 1 0 0 0
1745 1 0 0 0
1747 1 0 0 0
1765 1 0 0 0
1767 1 0 0 0
1746 2 0 0 0
1945 1 0 0 0
1946 2 0 0 0
1947 1 0 0 0
1965 1 0 0 0
1967 1 0 0 0
166 2 0 0 0
185 1 0 0 0
186 2 0 0 0
187 1 0 0 0
366 2 0 0 0
385 1 0 0 0
386 2 0 0 0
387 1 0 0 0
566 2 0 0 0
585 1 0 0 0
586 2 0 0 0
587 1 0 0 0
785 1 0 0 0
787 1 0 0 0
766 2 0 0 0
786 2 0 0 0
966 2 0 0 0
985 1 0 0 0
986 2 0 0 0
987 1 0 0 0
1166 2 0 0 0
1185 1 0 0 0
1186 2 0 0 0
1187 1 0 0 0
1366 2 0 0 0
1385 1 0 0 0
1386 2 0 0 0
1387 1 0 0 0
1566 2 0 0 0
1585 1 0 0 0
1586 2 0 0 0
1587 1 0 0 0
1785 1 0 0 0
1787 1 0 0 0
1766 2 0 0 0
1786 2 0 0 0
1966 2 0 0 0
1985 1 0 0 0
1986 2 0 0 0
1987 1 0 0 0
8 2 0 0 0
9 1 0 0 0
10 2 0 0 0
28 2 0 0 0
29 1 0 0 0
30 2 0 0 0
208 2 0 0 0
209 1 0 0 0
210 2 0 0 0
228 2 0 0 0
229 1 0 0 0
230 2 0 0 0
408 2 0 0 0
409 1 0 0 0
410 2 0 0 0
428 2 0 0 0
429 1 0 0 0
430 2 0 0 0
609 1 0 0 0
629 1 0 0 0
608 2 0 0 0
610 2 0 0 0
628 2 0 0 0
630 2 0 0 0
808 2 0 0 0
809 1 0 0 0
810 2 0 0 0
828 2 0 0 0
829 1 0 0 0
830 2 0 0 0
1008 2 0 0 0
1009 1 0 0 0
1010 2 0 0 0
1028 2 0 0 0
1029 1 0 0 0
1030 2 0 0 0
1208 2 0 0 0
1209 1 0 0 0
1210 2 0 0 0
1228 2 0 0 0
1229 1 0 0 0
1230 2 0 0 0
1408 2 0 0 0
1409 1 0 0 0
1410 2 0 0 0
1428 2 0 0 0
1429 1 0 0 0
1430 2 0 0 0
1609 1 0 0 0
1629 1 0 0 0
1608 2 0 0 0
1610 2 0 0 0
1628 2 0 0 0
1630 2 0 0 0
1808 2 0 0 0
1809 1 0 0 0
1810 2 0 0 0
1828 2 0 0 0
1829 1 0 0 0
1830 2 0 0 0
48 2 0 0 0
49 1 0 0 0
50 2 0 0 0
69 1 0 0 0
248 2 0 0 0
249 1 0 0 0
250 2 0 0 0
269 1 0 0 0
448 2 0 0 0
449 1 0 0 0
450 2 0 0 0
469 1 0 0 0
649 1 0 0 0
669 1 0 0 0
648 2 0 0 0
650 2 0 0 0
848 2 0 0 0
849 1 0 0 0
850 2 0 0 0
869 1 0 0 0
1048 2 0 0 0
1049 1 0 0 0
1050 2 0 0 0
1069 1 0 0 0
1248 2 0 0 0
1249 1 0 0 0
1250 2 0 0 0
1269 1 0 0 0
1448 2 0 0 0
1449 1 0 0 0
1450 2 0 0 0
1469 1 0 0 0
1649 1 0 0 0
1669 1 0 0 0
1648 2 0 0 0
1650 2 0 0 0
1848 2 0 0 0
1849 1 0 0 0
1850 2 0 0 0
1869 1 0 0 0
68 2 0 0 0
70 2 0 0 0
88 2 0 0 0
89 1 0 0 0
90 2 0 0 0
268 2 0 0 0
270 2 0 0 0
288 2 0 0 0
289 1 0 0 0
290 2 0 0 0
468 2 0 0 0
470 2 0 0 0
488 2 0 0 0
489 1 0 0 0
490 2 0 0 0
689 1 0 0 0
668 2 0 0 0
670 2 0 0 0
688 2 0 0 0
690 2 0 0 0
868 2 0 0 0
870 2 0 0 0
888 2 0 0 0
889 1 0 0 0
890 2 0 0 0
1068 2 0 0 0
1070 2 0 0 0
1088 2 0 0 0
1089 1 0 0 0
1090 2 0 0 0
1268 2 0 0 0
1270 2 0 0 0
1288 2 0 0 0
1289 1 0 0 0
1290 2 0 0 0
1468 2 0 0 0
1470 2 0 0 0
1488 2 0 0 0
1489 1 0 0 0
1490 2 0 0 0
1689 1 0 0 0
1668 2 0 0 0
1670 2 0 0 0
1688 2 0 0 0
1690 2 0 0 0
1868 2 0 0 0
1870 2 0 0 0
1888 2 0 0 0
1889 1 0 0 0
1890 2 0 0 0
108 2 0 0 0
109 1 0 0 0
110 2 0 0 0
128 2 0 0 0
129 1 0 0 0
130 2 0 0 0
308 2 0 0 0
309 1 0 0 0
310 2 0 0 0
328 2 0 0 0
329 1 0 0 0
330 2 0 0 0
508 2 0 0 0
509 1 0 0 0
510 2 0 0 0
528 2 0 0 0
529 1 0 0 0
530 2 0 0 0
709 1 0 0 0
729 1 0 0 0
708 2 0 0 0
710 2 0 0 0
728 2 0 0 0
730 2 0 0 0
908 2 0 0 0
909 1 0 0 0
910 2 0 0 0
928 2 0 0 0
929 1 0 0 0
930 2 0 0 0
1108 2 0 0 0
1109 1 0 0 0
1110 2 0 0 0
1128 2 0 0 0
1129 1 0 0 0
1130 2 0 0 0
1308 2 0 0 0
1309 1 0 0 0
1310 2 0 0 0
1328 2 0 0 0
1329 1 0 0 0
1330 2 0 0 0
1508 2 0 0 0
1509 1 0 0 0
1510 2 0 0 0
1528 2 0 0 0
1529 1 0 0 0
1530 2 0 0 0
1709 1 0 0 0
1729 1 0 0 0
1708 2 0 0 0
1710 2 0 0 0
1728 2 0 0 0
1730 2 0 0 0
1908 2 0 0 0
1909 1 0 0 0
1910 2 0 0 0
1928 2 0 0 0
1929 1 0 0 0
1930 2 0 0 0
148 2 0 0 0
149 1 0 0 0
150 2 0 0 0
169 1 0 0 0
348 2 0 0 0
349 1 0 0 0
350 2 0 0 0
369 1 0 0 0
548 2 0 0 0
549 1 0 0 0
550 2 0 0 0
569 1 0 0 0
749 1 0 0 0
769 1 0 0 0
748 2 0 0 0
750 2 0 0 0
948 2 0 0 0
949 1 0 0 0
950 2 0 0 0
969 1 0 0 0
1148 2 0 0 0
1149 1 0 0 0
1150 2 0 0 0
1169 1 0 0 0
1348 2 0 0 0
1349 1 0 0 0
1350 2 0 0 0
1369 1 0 0 0
1548 2 0 0 0
1549 1 0 0 0
1550 2 0 0 0
1569 1 0 0 0
1749 1 0 0 0
1769 1 0 0 0
1748 2 0 0 0
1750 2 0 0 0
1948 2 0 0 0
1949 1 0 0 0
1950 2 0 0 0
1969 1 0 0 0
168 2 0 0 0
170 2 0 0 0
188 2 0 0 0
189 1 0 0 0
190 2 0 0 0
368 2 0 0 0
370 2 0 0 0
388 2 0 0 0
389 1 0 0 0
390 2 0 0 0
568 2 0 0 0
570 2 0 0 0
588 2 0 0 0
589 1 0 0 0
590 2 0 0 0
789 1 0 0 0
768 2 0 0 0
770 2 0 0 0
788 2 0 0 0
790 2 0 0 0
968 2 0 0 0
970 2 0 0 0
988 2 0 0 0
989 1 0 0 0
990 2 0 0 0
1168 2 0 0 0
1170 2 0 0 0
1188 2 0 0 0
1189 1 0 0 0
1190 2 0 0 0
1368 2 0 0 0
1370 2 0 0 0
1388 2 0 0 0
1389 1 0 0 0
1390 2 0 0 0
1568 2 0 0 0
1570 2 0 0 0
1588 2 0 0 0
1589 1 0 0 0
1590 2 0 0 0
1789 1 0 0 0
1768 2 0 0 0
1770 2 0 0 0
1788 2 0 0 0
1790 2 0 0 0
1968 2 0 0 0
1970 2 0 0 0
1988 2 0 0 0
1989 1 0 0 0
1990 2 0 0 0
11 1 0 0 0
12 2 0 0 0
13 1 0 0 0
14 2 0 0 0
31 1 0 0 0
32 2 0 0 0
33 1 0 0 0
34 2 0 0 0
211 1 0 0 0
212 2 0 0 0
213 1 0 0 0
214 2 0 0 0
231 1 0 0 0
232 2 0 0 0
233 1 0 0 0
234 2 0 0 0
411 1 0 0 0
412 2 0 0 0
413 1 0 0 0
414 2 0 0 0
431 1 0 0 0
432 2 0 0 0
433 1 0 0 0
434 2 0 0 0
611 1 0 0 0
613 1 0 0 0
631 1 0 0 0
633 1 0 0 0
612 2 0 0 0
614 2 0 0 0
632 2 0 0 0
634 2 0 0 0
811 1 0 0 0
812 2 0 0 0
813 1 0 0 0
814 2 0 0 0
831 1 0 0 0
832 2 0 0 0
833 1 0 0 0
834 2 0 0 0
1011 1 0 0 0
1012 2 0 0 0
1013 1 0 0 0
1014 2 0 0 0
1031 1 0 0 0
1032 2 0 0 0
1033 1 0 0 0
1034 2 0 0 0
1211 1 0 0 0
1212 2 0 0 0
1213 1 0 0 0
1214 2 0 0 0
1231 1 0 0 0
1232 2 0 0 0
1233 1 0 0 0
1234 2 0 0 0
1411 1 0 0 0
1412 2 0 0 0
1413 1 0 0 0
1414 2 0 0 0
1431 1 0 0 0
1432 2 0 0 0
1433 1 0 0 0
1434 2 0 0 0
1611 1 0 0 0
1613 1 0 0 0
1631 1 0 0 0
1633 1 0 0 0
1612 2 0 0 0
1614 2 0 0 0
1632 2 0 0 0
1634 2 0 0 0
1811 1 0 0 0
1812 2 0 0 0
1813 1 0 0 0
1814 2 0 0 0
1831 1 0 0 0
1832 2 0 0 0
1833 1 0 0 0
1834 2 0 0 0
51 1 0 0 0
52 2 0 0 0
53 1 0 0 0
54 2 0 0 0
71 1 0 0 0
73 1 0 0 0
251 1 0 0 0
252 2 0 0 0
253 1 0 0 0
254 2 0 0 0
271 1 0 0 0
273 1 0 0 0
451 1 0 0 0
452 2 0 0 0
453 1 0 0 0
454 2 0 0 0
471 1 0 0 0
473 1 0 0 0
651 1 0 0 0
653 1 0 0 0
671 1 0 0 0
673 1 0 0 0
652 2 0 0 0
654 2 0 0 0
851 1 0 0 0
852 2 0 0 0
853 1 0 0 0
854 2 0 0 0
871 1 0 0 0
873 1 0 0 0
1051 1 0 0 0
1052 2 0 0 0
1053 1 0 0 0
1054 2 0 0 0
1071 1 0 0 0
1073 1 0 0 0
1251 1 0 0 0
1252 2 0 0 0
1253 1 0 0 0
1254 2 0 0 0
1271 1 0 0 0
1273 1 0 0 0
1451 1 0 0 0
1452 2 0 0 0
1453 1 0 0 0
1454 2 0 0 0
1471 1 0 0 0
1473 1 0 0 0
1651 1 0 0 0
1653 1 0 0 0
1671 1 0 0 0
1673 1 0 0 0
1652 2 0 0 0
1654 2 0 0 0
1851 1 0 0 0
1852 2 0 0 0
1853 1 0 0 0
1854 2 0 0 0
1871 1 0 0 0
1873 1 0 0 0
72 2 0 0 0
74 2 0 0 0
91 1 0 0 0
92 2 0 0 0
93 1 0 0 0
94 2 0 0 0
272 2 0 0 0
274 2 0 0 0
291 1 0 0 0
292 2 0 0 0
293 1 0 0 0
294 2 0 0 0
472 2 0 0 0
474 2 0 0 0
491 1 0 0 0
492 2 0 0 0
493 1 0 0 0
494 2 0 0 0
691 1 0 0 0
693 1 0 0 0
672 2 0 0 0
674 2 0 0 0
692 2 0 0 0
694 2 0 0 0
872 2 0 0 0
874 2 0 0 0
891 1 0 0 0
892 2 0 0 0
893 1 0 0 0
894 2 0 0 0
1072 2 0 0 0
1074 2 0 0 0
1091 1 0 0 0
1092 2 0 0 0
1093 1 0 0 0
1094 2 0 0 0
1272 2 0 0 0
1274 2 0 0 0
1291 1 0 0 0
1292 2 0 0 0
1293 1 0 0 0
1294 2 0 0 0
1472 2 0 0 0
1474 2 0 0 0
1491 1 0 0 0
1492 2 0 0 0
1493 1 0 0 0
1494 2 0 0 0
1691 1 0 0 0
1693 1 0 0 0
1672 2 0 0 0
1674 2 0 0 0
1692 2 0 0 0
1694 2 0 0 0
1872 2 0 0 0
1874 2 0 0 0
1891 1 0 0 0
1892 2 0 0 0
1893 1 0 0 0
1894 2 0 0 0
111 1 0 0 0
112 2 0 0 0
113 1 0 0 0
114 2 0 0 0
131 1 0 0 0
132 2 0 0 0
133 1 0 0 0
134 2 0 0 0
311 1 0 0 0
312 2 0 0 0
313 1 0 0 0
314 2 0 0 0
331 1 0 0 0
332 2 0 0 0
333 1 0 0 0
334 2 0 0 0
511 1 0 0 0
512 2 0 0 0
513 1 0 0 0
514 2 0 0 0
531 1 0 0 0
532 2 0 0 0
533 1 0 0 0
534 2 0 0 0
711 1 0 0 0
713 1 0 0 0
731 1 0 0 0
733 1 0 0 0
712 2 0 0 0
714 2 0 0 0
732 2 0 0 0
734 2 0 0 0
911 1 0 0 0
912 2 0 0 0
913 1 0 0 0
914 2 0 0 0
931 1 0 0 0
932 2 0 0 0
933 1 0 0 0
934 2 0 0 0
1111 1 0 0 0
1112 2 0 0 0
1113 1 0 0 0
1114 2 0 0 0
1131 1 0 0 0
1132 2 0 0 0
1133 1 0 0 0
1134 2 0 0 0
1311 1 0 0 0
1312 2 0 0 0
1313 1 0 0 0
1314 2 0 0 0
1331 1 0 0 0
1332 2 0 0 0
1333 1 0 0 0
1334 2 0 0 0
1511 1 0 0 0
1512 2 0 0 0
1513 1 0 0 0
1514 2 0 0 0
1531 1 0 0 0
1532 2 0 0 0
1533 1 0 0 0
1534 2 0 0 0
1711 1 0 0 0
1713 1 0 0 0
1731 1 0 0 0
1733 1 0 0 0
1712 2 0 0 0
1714 2 0 0 0
1732 2 0 0 0
1734 2 0 0 0
1911 1 0 0 0
1912 2 0 0 0
1913 1 0 0 0
1914 2 0 0 0
1931 1 0 0 0
1932 2 0 0 0
1933 1 0 0 0
1934 2 0 0 0
151 1 0 0 0
152 2 0 0 0
153 1 0 0 0
154 2 0 0 0
171 1 0 0 0
173 1 0 0 0
351 1 0 0 0
352 2 0 0 0
353 1 0 0 0
354 2 0 0 0
371 1 0 0 0
373 1 0 0 0
551 1 0 0 0
552 2 0 0 0
553 1 0 0 0
554 2 0 0 0
571 1 0 0 0
573 1 0 0 0
751 1 0 0 0
753 1 0 0 0
771 1 0 0 0
773 1 0 0 0
752 2 0 0 0
754 2 0 0 0
951 1 0 0 0
952 2 0 0 0
953 1 0 0 0
954 2 0 0 0
971 1 0 0 0
973 1 0 0 0
1151 1 0 0 0
1152 2 0 0 0
1153 1 0 0 0
1154 2 0 0 0
1171 1 0 0 0
1173 1 0 0 0
1351 1 0 0 0
1352 2 0 0 0
1353 1 0 0 0
1354 2 0 0 0
1371 1 0 0 0
1373 1 0 0 0
1551 1 0 0 0
1552 2 0 0 0
1553 1 0 0 0
1554 2 0 0 0
1571 1 0 0 0
1573 1 0 0 0
1751 1 0 0 0
1753 1 0 0 0
1771 1 0 0 0
1773 1 0 0 0
1752 2 0 0 0
1754 2 0 0 0
1951 1 0 0 0
1952 2 0 0 0
1953 1 0 0 0
1954 2 0 0 0
1971 1 0 0 0
1973 1 0 0 0
172 2 0 0 0
174 2 0 0 0
191 1 0 0 0
192 2 0 0 0
193 1 0 0 0
194 2 0 0 0
372 2 0 0 0
374 2 0 0 0
391 1 0 0 0
392 2 0 0 0
393 1 0 0 0
394 2 0 0 0
572 2 0 0 0
574 2 0 0 0
591 1 0 0 0
592 2 0 0 0
593 1 0 0 0
594 2 0 0 0
791 1 0 0 0
793 1 0 0 0
772 2 0 0 0
774 2 0 0 0
792 2 0 0 0
794 2 0 0 0
972 2 0 0 0
974 2 0 0 0
991 1 0 0 0
992 2 0 0 0
993 1 0 0 0
994 2 0 0 0
1172 2 0 0 0
1174 2 0 0 0
1191 1 0 0 0
1192 2 0 0 0
1193 1 0 0 0
1194 2 0 0 0
1372 2 0 0 0
1374 2 0 0 0
1391 1 0 0 0
1392 2 0 0 0
1393 1 0 0 0
1394 2 0 0 0
1572 2 0 0 0
1574 2 0 0 0
1591 1 0 0 0
1592 2 0 0 0
1593 1 0 0 0
1594 2 0 0 0
1791 1 0 0 0
1793 1 0 0 0
1772 2 0 0 0
1774 2 0 0 0
1792 2 0 0 0
1794 2 0 0 0
1972 2 0 0 0
1974 2 0 0 0
1991 1 0 0 0
1992 2 0 0 0
1993 1 0 0 0
1994 2 0 0 0
15 1 0 0 0
16 2 0 0 0
17 1 0 0 0
35 1 0 0 0
36 2 0 0 0
37 1 0 0 0
215 1 0 0 0
216 2 0 0 0
217 1 0 0 0
235 1 0 0 0
236 2 0 0 0
237 1 0 0 0
415 1 0 0 0
416 2 0 0 0
417 1 0 0 0
435 1 0 0 0
436 2 0 0 0
437 1 0 0 0
615 1 0 0 0
617 1 0 0 0
635 1 0 0 0
637 1 0 0 0
616 2 0 0 0
636 2 0 0 0
815 1 0 0 0
816 2 0 0 0
817 1 0 0 0
835 1 0 0 0
836 2 0 0 0
837 1 0 0 0
1015 1 0 0 0
1016 2 0 0 0
1017 1 0 0 0
1035 1 0 0 0
1036 2 0 0 0
1037 1 0 0 0
1215 1 0 0 0
1216 2 0 0 0
1217 1 0 0 0
1235 1 0 0 0
1236 2 0 0 0
1237 1 0 0 0
1415 1 0 0 0
1416 2 0 0 0
1417 1 0 0 0
1435 1 0 0 0
1436 2 0 0 0
1437 1 0 0 0
1615 1 0 0 0
1617 1 0 0 0
1635 1 0 0 0
1637 1 0 0 0
1616 2 0 0 0
1636 2 0 0 0
1815 1 0 0 0
1816 2 0 0 0
1817 1 0 0 0
1835 1 0 0 0
1836 2 0 0 0
1837 1 0 0 0
55 1 0 0 0
56 2 0 0 0
57 1 0 0 0
75 1 0 0 0
77 1 0 0 0
255 1 0 0 0
256 2 0 0 0
257 1 0 0 0
275 1 0 0 0
277 1 0 0 0
455 1 0 0 0
456 2 0 0 0
457 1 0 0 0
475 1 0 0 0
477 1 0 0 0
655 1 0 0 0
657 1 0 0 0
675 1 0 0 0
677 1 0 0 0
656 2 0 0 0
855 1 0 0 0
856 2 0 0 0
857 1 0 0 0
875 1 0 0 0
877 1 0 0 0
1055 1 0 0 0
1056 2 0 0 0
1057 1 0 0 0
1075 1 0 0 0
1077 1 0 0 0
1255 1 0 0 0
1256 2 0 0 0
1257 1 0 0 0
1275 1 0 0 0
1277 1 0 0 0
1455 1 0 0 0
1456 2 0 0 0
1457 1 0 0 0
1475 1 0 0 0
1477 1 0 0 0
1655 1 0 0 0
1657 1 0 0 0
1675 1 0 0 0
1677 1 0 0 0
1656 2 0 0 0
1855 1 0 0 0
1856 2 0 0 0
1857 1 0 0 0
1875 1 0 0 0
1877 1 0 0 0
76 2 0 0 0
95 1 0 0 0
96 2 0 0 0
97 1 0 0 0
276 2 0 0 0
295 1 0 0 0
296 2 0 0 0
297 1 0 0 0
476 2 0 0 0
495 1 0 0 0
496 2 0 0 0
497 1 0 0 0
695 1 0 0 0
697 1 0 0 0
676 2 0 0 0
696 2 0 0 0
876 2 0 0 0
895 1 0 0 0
896 2 0 0 0
897 1 0 0 0
1076 2 0 0 0
1095 1 0 0 0
1096 2 0 0 0
1097 1 0 0 0
1276 2 0 0 0
1295 1 0 0 0
1296 2 0 0 0
1297 1 0 0 0
1476 2 0 0 0
1495 1 0 0 0
1496 2 0 0 0
1497 1 0 0 0
1695 1 0 0 0
1697 1 0 0 0
1676 2 0 0 0
1696 2 0 0 0
1876 2 0 0 0
1895 1 0 0 0
1896 2 0 0 0
1897 1 0 0 0
115 1 0 0 0
116 2 0 0 0
117 1 0 0 0
135 1 0 0 0
136 2 0 0 0
137 1 0 0 0
315 1 0 0 0
316 2 0 0 0
317 1 0 0 0
335 1 0 0 0
336 2 0 0 0
337 1 0 0 0
515 1 0 0 0
516 2 0 0 0
517 1 0 0 0
535 1 0 0 0
536 2 0 0 0
537 1 0 0 0
715 1 0 0 0
717 1 0 0 0
735 1 0 0 0
737 1 0 0 0
716 2 0 0 0
736 2 0 0 0
915 1 0 0 0
916 2 0 0 0
917 1 0 0 0
935 1 0 0 0
936 2 0 0 0
937 1 0 0 0
1115 1 0 0 0
1116 2 0 0 0
1117 1 0 0 0
1135 1 0 0 0
1136 2 0 0 0
1137 1 0 0 0
1315 1 0 0 0
1316 2 0 0 0
1317 1 0 0 0
1335 1 0 0 0
1336 2 0 0 0
1337 1 0 0 0
1515 1 0 0 0
1516 2 0 0 0
1517 1 0 0 0
1535 1 0 0 0
1536 2 0 0 0
1537 1 0 0 0
1715 1 0 0 0
1717 1 0 0 0
1735 1 0 0 0
1737 1 0 0 0
1716 2 0 0 0
1736 2 0 0 0
1915 1 0 0 0
1916 2 0 0 0
1917 1 0 0 0
1935 1 0 0 0
1936 2 0 0 0
1937 1 0 0 0
155 1 0 0 0
156 2 0 0 0
157 1 0 0 0
175 1 0 0 0
177 1 0 0 0
355 1 0 0 0
356 2 0 0 0
357 1 0 0 0
375 1 0 0 0
377 1 0 0 0
555 1 0 0 0
556 2 0 0 0
557 1 0 0 0
575 1 0 0 0
577 1 0 0 0
755 1 0 0 0
757 1 0 0 0
775 1 0 0 0
777 1 0 0 0
756 2 0 0 0
955 1 0 0 0
956 2 0 0 0
957 1 0 0 0
975 1 0 0 0
977 1 0 0 0
1155 1 0 0 0
1156 2 0 0 0
1157 1 0 0 0
1175 1 0 0 0
1177 1 0 0 0
1355 1 0 0 0
1356 2 0 0 0
1357 1 0 0 0
1375 1 0 0 0
1377 1 0 0 0
1555 1 0 0 0
1556 2 0 0 0
1557 1 0 0 0
1575 1 0 0 0
1577 1 0 0 0
1755 1 0 0 0
1757 1 0 0 0
1775 1 0 0 0
1777 1 0 0 0
1756 2 0 0 0
1955 1 0 0 0
1956 2 0 0 0
1957 1 0 0 0
1975 1 0 0 0
1977 1 0 0 0
176 2 0 0 0
195 1 0 0 0
196 2 0 0 0
197 1 0 0 0
376 2 0 0 0
395 1 0 0 0
396 2 0 0 0
397 1 0 0 0
576 2 0 0 0
595 1 0 0 0
596 2 0 0 0
597 1 0 0 0
795 1 0 0 0
797 1 0 0 0
776 2 0 0 0
796 2 0 0 0
976 2 0 0 0
995 1 0 0 0
996 2 0 0 0
997 1 0 0 0
1176 2 0 0 0
1195 1 0 0 0
1196 2 0 0 0
1197 1 0 0 0
1376 2 0 0 0
1395 1 0 0 0
1396 2 0 0 0
1397 1 0 0 0
1576 2 0 0 0
1595 1 0 0 0
1596 2 0 0 0
1597 1 0 0 0
1795 1 0 0 0
1797 1 0 0 0
1776 2 0 0 0
1796 2 0 0 0
1976 2 0 0 0
1995 1 0 0 0
1996 2 0 0 0
1997 1 0 0 0
18 2 0 0 0
19 1 0 0 0
20 2 0 0 0
38 2 0 0 0
39 1 0 0 0
40 2 0 0 0
218 2 0 0 0
219 1 0 0 0
220 2 0 0 0
238 2 0 0 0
239 1 0 0 0
240 2 0 0 0
418 2 0 0 0
419 1 0 0 0
420 2 0 0 0
438 2 0 0 0
439 1 0 0 0
440 2 0 0 0
619 1 0 0 0
639 1 0 0 0
618 2 0 0 0
620 2 0 0 0
638 2 0 0 0
640 2 0 0 0
818 2 0 0 0
819 1 0 0 0
820 2 0 0 0
838 2 0 0 0
839 1 0 0 0
840 2 0 0 0
1018 2 0 0 0
1019 1 0 0 0
1020 2 0 0 0
1038 2 0 0 0
1039 1 0 0 0
1040 2 0 0 0
1218 2 0 0 0
1219 1 0 0 0
1220 2 0 0 0
1238 2 0 0 0
1239 1 0 0 0
1240 2 0 0 0
1418 2 0 0 0
1419 1 0 0 0
1420 2 0 0 0
1438 2 0 0 0
1439 1 0 0 0
1440 2 0 0 0
1619 1 0 0 0
1639 1 0 0 0
1618 2 0 0 0
1620 2 0 0 0
1638 2 0 0 0
1640 2 0 0 0
1818 2 0 0 0
1819 1 0 0 0
1820 2 0 0 0
1838 2 0 0 0
1839 1 0 0 0
1840 2 0 0 0
58 2 0 0 0
59 1 0 0 0
60 2 0 0 0
79 1 0 0 0
258 2 0 0 0
259 1 0 0 0
260 2 0 0 0
279 1 0 0 0
458 2 0 0 0
459 1 0 0 0
460 2 0 0 0
479 1 0 0 0
659 1 0 0 0
679 1 0 0 0
658 2 0 0 0
660 2 0 0 0
858 2 0 0 0
859 1 0 0 0
860 2 0 0 0
879 1 0 0 0
1058 2 0 0 0
1059 1 0 0 0
1060 2 0 0 0
1079 1 0 0 0
1258 2 0 0 0
1259 1 0 0 0
1260 2 0 0 0
1279 1 0 0 0
1458 2 0 0 0
1459 1 0 0 0
1460 2 0 0 0
1479 1 0 0 0
1659 1 0 0 0
1679 1 0 0 0
1658 2 0 0 0
1660 2 0 0 0
1858 2 0 0 0
1859 1 0 0 0
1860 2 0 0 0
1879 1 0 0 0
78 2 0 0 0
80 2 0 0 0
98 2 0 0 0
99 1 0 0 0
100 2 0 0 0
278 2 0 0 0
280 2 0 0 0
298 2 0 0 0
299 1 0 0 0
300 2 0 0 0
478 2 0 0 0
480 2 0 0 0
498 2 0 0 0
499 1 0 0 0
500 2 0 0 0
699 1 0 0 0
678 2 0 0 0
680 2 0 0 0
698 2 0 0 0
700 2 0 0 0
878 2 0 0 0
880 2 0 0 0
898 2 0 0 0
899 1 0 0 0
900 2 0 0 0
1078 2 0 0 0
1080 2 0 0 0
1098 2 0 0 0
1099 1 0 0 0
1100 2 0 0 0
1278 2 0 0 0
1280 2 0 0 0
1298 2 0 0 0
1299 1 0 0 0
1300 2 0 0 0
1478 2 0 0 0
1480 2 0 0 0
1498 2 0 0 0
1499 1 0 0 0
1500 2 0 0 0
1699 1 0 0 0
1678 2 0 0 0
1680 2 0 0 0
1698 2 0 0 0
1700 2 0 0 0
1878 2 0 0 0
1880 2 0 0 0
1898 2 0 0 0
1899 1 0 0 0
1900 2 0 0 0
118 2 0 0 0
119 1 0 0 0
120 2 0 0 0
138 2 0 0 0
139 1 0 0 0
140 2 0 0 0
318 2 0 0 0
319 1 0 0 0
320 2 0 0 0
338 2 0 0 0
339 1 0 0 0
340 2 0 0 0
518 2 0 0 0
519 1 0 0 0
520 2 0 0 0
538 2 0 0 0
539 1 0 0 0
540 2 0 0 0
719 1 0 0 0
739 1 0 0 0
718 2 0 0 0
720 2 0 0 0
738 2 0 0 0
740 2 0 0 0
918 2 0 0 0
919 1 0 0 0
920 2 0 0 0
938 2 0 0 0
939 1 0 0 0
940 2 0 0 0
1118 2 0 0 0
1119 1 0 0 0
1120 2 0 0 0
1138 2 0 0 0
1139 1 0 0 0
1140 2 0 0 0
1318 2 0 0 0
1319 1 0 0 0
1320 2 0 0 0
1338 2 0 0 0
1339 1 0 0 0
1340 2 0 0 0
1518 2 0 0 0
1519 1 0 0 0
1520 2 0 0 0
1538 2 0 0 0
1539 1 0 0 0
1540 2 0 0 0
1719 1 0 0 0
1739 1 0 0 0
1718 2 0 0 0
1720 2 0 0 0
1738 2 0 0 0
1740 2 0 0 0
1918 2 0 0 0
1919 1 0 0 0
1920 2 0 0 0
1938 2 0 0 0
1939 1 0 0 0
1940 2 0 0 0
158 2 0 0 0
159 1 0 0 0
160 2 0 0 0
179 1 0 0 0
358 2 0 0 0
359 1 0 0 0
360 2 0 0 0
379 1 0 0 0
558 2 0 0 0
559 1 0 0 0
560 2 0 0 0
579 1 0 0 0
759 1 0 0 0
779 1 0 0 0
758 2 0 0 0
760 2 0 0 0
958 2 0 0 0
959 1 0 0 0
960 2 0 0 0
979 1 0 0 0
1158 2 0 0 0
1159 1 0 0 0
1160 2 0 0 0
1179 1 0 0 0
1358 2 0 0 0
1359 1 0 0 0
1360 2 0 0 0
1379 1 0 0 0
1558 2 0 0 0
1559 1 0 0 0
1560 2 0 0 0
1579 1 0 0 0
1759 1 0 0 0
1779 1 0 0 0
1758 2 0 0 0
1760 2 0 0 0
1958 2 0 0 0
1959 1 0 0 0
1960 2 0 0 0
1979 1 0 0 0
178 2 0 0 0
180 2 0 0 0
198 2 0 0 0
199 1 0 0 0
200 2 0 0 0
378 2 0 0 0
380 2 0 0 0
398 2 0 0 0
399 1 0 0 0
400 2 0 0 0
578 2 0 0 0
580 2 0 0 0
598 2 0 0 0
599 1 0 0 0
600 2 0 0 0
799 1 0 0 0
778 2 0 0 0
780 2 0 0 0
798 2 0 0 0
800 2 0 0 0
978 2 0 0 0
980 2 0 0 0
998 2 0 0 0
999 1 0 0 0
1000 2 0 0 0
1178 2 0 0 0
1180 2 0 0 0
1198 2 0 0 0
1199 1 0 0 0
1200 2 0 0 0
1378 2 0 0 0
1380 2 0 0 0
1398 2 0 0 0
1399 1 0 0 0
1400 2 0 0 0
1578 2 0 0 0
1580 2 0 0 0
1598 2 0 0 0
1599 1 0 0 0
1600 2 0 0 0
1799 1 0 0 0
1778 2 0 0 0
1780 2 0 0 0
1798 2 0 0 0
1800 2 0 0 0
1978 2 0 0 0
1980 2 0 0 0
1998 2 0 0 0
1999 1 0 0 0
2000 2 0 0 0
