ITEM: TIMESTEP
30000
ITEM: NUMBER OF ATOMS
2000
ITEM: BOX BOUNDS xy xz yz pp pp pp
3.2830014349635929e-02 2.8162800781744323e+01 -3.6761501329336359e-03
2.5372575724550955e-02 2.8150492793677472e+01 -6.9305377346699022e-04
7.9949104146439964e-02 2.8120050895853950e+01 -2.4134630598059786e-02
ITEM: ATOMS id f_avePos[1] f_avePos[2] f_avePos[3]
1  -1.13321e-05  -1.29588e-05  5.61523e-06  
2  0.0125011  0.0124921  0.0124925  
3  -8.69795e-06  -2.96333e-06  0.0249988  
4  0.01251  0.0125019  0.0374978  
5  -1.32548e-05  7.56485e-06  0.0500085  
6  0.0125008  0.0125015  0.0624865  
7  -1.04757e-05  3.94813e-06  0.0749932  
8  0.0125038  0.0125136  0.087506  
9  -3.6631e-06  1.459e-05  0.100004  
10  0.0125025  0.0125107  0.112461  
11  -7.95783e-06  4.66092e-08  0.124981  
12  0.0124873  0.0125067  0.137485  
13  -1.94338e-05  5.49943e-06  0.149992  
14  0.0125013  0.0124859  0.16248  
15  -5.42812e-06  -6.29115e-06  0.174989  
16  0.0124864  0.0125146  0.187485  
17  -1.66222e-05  -3.11345e-06  0.19999  
18  0.0125285  0.012501  0.212493  
19  1.08953e-05  1.11055e-05  0.224996  
20  0.01251  0.0124859  0.237502  
21  7.56465e-07  0.0249781  -1.57437e-05  
22  0.0125018  0.0375293  0.0124889  
23  -3.87503e-06  0.025002  0.0249742  
24  0.0124988  0.0374895  0.0374748  
25  1.22696e-05  0.0249953  0.0499928  
26  0.0125168  0.0375187  0.0624827  
27  -2.20828e-06  0.0250033  0.0749905  
28  0.0124809  0.0375155  0.087476  
29  -1.60551e-05  0.0250133  0.0999745  
30  0.0124916  0.0374992  0.112488  
31  -1.1504e-05  0.0249943  0.124981  
32  0.0125053  0.0374985  0.137449  
33  4.5931e-06  0.0250082  0.149984  
34  0.0125171  0.0375235  0.162491  
35  9.40505e-06  0.025005  0.174978  
36  0.012498  0.0375287  0.18749  
37  8.8151e-06  0.0250208  0.199996  
38  0.0125242  0.0375072  0.212495  
39  9.629e-06  0.0249909  0.224996  
40  0.0124919  0.0374818  0.237515  
41  -8.87902e-08  0.0500025  -1.51067e-05  
42  0.0124909  0.0624917  0.0124844  
43  -6.59122e-06  0.0500022  0.024984  
44  0.0125276  0.0624883  0.0374963  
45  -4.80245e-06  0.0499783  0.0499793  
46  0.0125167  0.0624897  0.062483  
47  -1.06515e-05  0.0500065  0.0749757  
48  0.012507  0.0625093  0.0874893  
49  -1.22602e-05  0.0500085  0.099995  
50  0.0125137  0.0625307  0.112487  
51  -1.03796e-05  0.0500017  0.124987  
52  0.0124785  0.0625093  0.137494  
53  -7.86343e-06  0.049999  0.149994  
54  0.0125078  0.0625202  0.162526  
