ITEM: TIMESTEP
20000
ITEM: NUMBER OF ATOMS
54
ITEM: BOX BOUNDS xy xz yz pp pp pp
-8.4246018288647306e-03 8.5502744943369429e+00 3.4072700359403921e-02
-2.7310638346579173e-02 8.4663147131801377e+00 4.7777192148461337e-02
7.6798264026055385e-02 8.3832017359740529e+00 -2.0995925166356143e-02
ITEM: ATOMS id f_avePos[1] f_avePos[2] f_avePos[3]
2 0.166762 0.166475 0.166895
3 -0.000154725 -9.07881e-05 0.333372
4 0.166431 0.166703 0.499688
6 0.166742 0.166655 0.833475
8 0.166413 0.499794 0.166841
11 -0.000119206 0.333315 0.666838
12 0.166577 0.499775 0.833285
21 0.333508 -7.96016e-05 0.333338
22 0.499479 0.166325 0.500312
23 0.33308 -4.29209e-05 0.66676
24 0.49985 0.166679 0.833315
25 0.333519 0.333408 4.04899e-05
27 0.333312 0.333225 0.333518
28 0.499927 0.500135 0.499845
29 0.333527 0.333238 0.666744
1 0.000185312 -1.9199e-05 -0.000114974
5 -3.61876e-05 0.000166952 0.666491
7 -2.18638e-05 0.333147 -0.000127766
9 -5.00052e-05 0.333235 0.333127
20 0.499738 0.166782 0.166705
26 0.49982 0.500152 0.166936
37 0.66652 0.000220759 6.45456e-05
38 0.833711 0.166668 0.16648
40 0.833607 0.166991 0.499885
41 0.666794 0.000117617 0.666703
42 0.833304 0.166535 0.833319
43 0.666769 0.333311 -1.14739e-05
45 0.666633 0.333006 0.333418
47 0.666533 0.333278 0.666707
48 0.833344 0.499968 0.833315
10 0.166612 0.5 0.499939
13 0.000132048 0.666621 -0.000334122
14 0.166707 0.833246 0.166646
15 1.57653e-05 0.666835 0.333413
16 0.166589 0.833262 0.499775
17 5.75902e-05 0.666545 0.666613
18 0.166449 0.83345 0.833493
19 0.333418 0.000200312 -9.48008e-05
30 0.500148 0.500046 0.833498
31 0.333193 0.666454 9.06354e-05
32 0.499793 0.83358 0.166429
33 0.3333 0.666716 0.333327
34 0.499883 0.833538 0.500131
35 0.333383 0.666792 0.666996
36 0.499979 0.833266 0.83349
39 0.666621 6.77152e-05 0.333286
44 0.833768 0.500221 0.16659
46 0.833697 0.49989 0.499955
49 0.666757 0.666667 -3.30009e-06
50 0.833503 0.83328 0.16654
51 0.666631 0.666658 0.333257
52 0.833542 0.83327 0.499973
53 0.666527 0.666778 0.666503
54 0.833609 0.833421 0.833278
