ITEM: TIMESTEP
30000
ITEM: NUMBER OF ATOMS
2000
ITEM: BOX BOUNDS xy xz yz pp pp pp
3.2830014349635929e-02 2.8162800781744323e+01 -3.6761501329336359e-03
2.5372575724550955e-02 2.8150492793677472e+01 -6.9305377346699022e-04
7.9949104146439964e-02 2.8120050895853950e+01 -2.4134630598059786e-02
ITEM: ATOMS id f_avePos[1] f_avePos[2] f_avePos[3]
1  2.77123e-07  -2.54947e-05  1.78137e-05  
2  0.0374988  0.0375018  0.0374964  
3  4.80376e-06  -1.15434e-05  0.0750098  
4  0.0374964  0.0374779  0.112491  
5  -1.37819e-05  -1.22589e-05  0.150011  
6  0.0375007  0.0374919  0.187495  
7  1.68952e-05  -3.25392e-05  0.225012  
8  0.0375053  0.0375325  0.262494  
9  1.98643e-05  1.55558e-05  0.300005  
10  0.037485  0.0375296  0.33749  
11  -1.23091e-05  -6.42219e-06  0.375001  
12  0.0374943  0.0374905  0.412472  
13  -1.0693e-05  3.41005e-06  0.449991  
14  0.0374994  0.0374636  0.487475  
15  5.59355e-06  -8.67888e-06  0.524981  
16  0.0374788  0.0374773  0.562485  
17  -2.50508e-06  -2.71952e-05  0.599992  
18  0.0375253  0.0374939  0.637506  
19  3.86364e-05  1.75202e-05  0.674984  
20  0.0375267  0.0374753  0.712494  
21  -1.26106e-05  0.0749647  -7.86038e-06  
22  0.0374767  0.112491  0.0374606  
23  -7.1453e-06  0.074984  0.0749689  
24  0.0374817  0.112479  0.112487  
25  3.71351e-05  0.0749814  0.149992  
26  0.0374909  0.112515  0.187494  
27  5.37547e-07  0.0749964  0.225004  
28  0.0374866  0.112497  0.262483  
29  -3.7518e-05  0.0750061  0.299963  
30  0.0374942  0.112475  0.337486  
31  -2.04419e-05  0.0749792  0.375005  
32  0.0375188  0.112521  0.412463  
33  -2.09923e-05  0.0749912  0.449981  
34  0.0375182  0.112519  0.487514  
35  1.6602e-05  0.0750074  0.524976  
36  0.0374997  0.112525  0.562472  
37  1.26077e-05  0.0750242  0.600001  
38  0.0375454  0.112512  0.637504  
39  8.30963e-06  0.0749869  0.67499  
40  0.0374691  0.112482  0.712522  
41  -1.12517e-05  0.150002  -1.60489e-05  
42  0.0374708  0.187494  0.0374809  
43  5.66698e-06  0.149981  0.074997  
44  0.0374943  0.187487  0.112505  
45  -1.9792e-05  0.149979  0.149989  
46  0.0374912  0.187485  0.187497  
47  -3.33839e-05  0.150002  0.224996  
48  0.0375153  0.187495  0.262522  
49  -2.3865e-05  0.150013  0.299992  
50  0.0375  0.187506  0.337505  
51  -2.23897e-05  0.149987  0.374992  
52  0.037476  0.187479  0.412497  
53  -2.39432e-06  0.150009  0.450004  
54  0.0375245  0.187548  0.487542  
55  2.85502e-05  0.150029  0.525012  
56  0.0375419  0.187527  0.56251  
57  6.78765e-07  0.150022  0.599994  
58  0.0375102  0.187496  0.637511  
59  2.08075e-07  0.150012  0.674993  
60  0.0374832  0.187495  0.712517  
61  -2.36444e-05  0.224998  -3.9067e-06  
62  0.0374779  0.262496  0.0375311  
63  -1.41369e-05  0.224986  0.0750075  
64  0.0374922  0.262507  0.112493  
65  4.15893e-05  0.224981  0.150018  
66  0.0375001  0.262524  0.18749  
67  1.03195e-05  0.225013  0.224989  
68  0.0375074  0.262514  0.262508  
69  -2.418e-05  0.225014  0.299998  
70  0.0374793  0.262496  0.337504  
71  3.86414e-05  0.224981  0.374993  
72  0.0374935  0.26247  0.412495  
73  1.16074e-06  0.225006  0.45  
74  0.037527  0.262501  0.487506  
75  1.99064e-05  0.225012  0.525023  
76  0.037512  0.262494  0.562525  
77  -6.43783e-06  0.22502  0.600012  
78  0.0375032  0.262504  0.637508  
79  -2.437e-05  0.224995  0.674987  
80  0.0374965  0.262485  0.712478  
81  -1.63019e-05  0.299975  -7.5277e-06  
82  0.0374832  0.337483  0.0374736  
83  -1.16461e-05  0.300015  0.0750046  
84  0.0374938  0.33751  0.112519  
85  -2.17105e-06  0.299989  0.149972  
86  0.0374974  0.337509  0.187484  
87  -2.03349e-05  0.299999  0.224982  
88  0.0375135  0.337508  0.26251  
89  -1.31936e-05  0.29997  0.300005  
90  0.0375252  0.337506  0.337494  
91  4.37384e-06  0.300021  0.374997  
92  0.0375279  0.337492  0.412461  
93  -5.28542e-06  0.299996  0.449991  
94  0.0375048  0.337519  0.487477  
95  1.9867e-05  0.299991  0.525002  
96  0.0375055  0.337514  0.562541  
97  1.25694e-05  0.299991  0.600008  
98  0.0375019  0.337506  0.637489  
99  3.47577e-06  0.300011  0.675008  
100  0.0374943  0.337455  0.712517  
101  -1.99403e-06  0.375003  -9.20302e-06  
102  0.0375221  0.41248  0.0374866  
103  4.96435e-06  0.374977  0.0750292  
104  0.0375189  0.412535  0.112522  
105  1.16998e-06  0.374998  0.150008  
106  0.0374918  0.412513  0.187487  
107  4.16142e-05  0.374988  0.225029  
108  0.0375153  0.412511  0.262493  
109  5.4783e-06  0.374984  0.299994  
110  0.0375005  0.412471  0.337444  
111  2.06743e-05  0.375004  0.374997  
112  0.0375026  0.412516  0.412474  
113  3.34574e-05  0.375004  0.449979  
114  0.0374814  0.412477  0.487499  
115  6.33261e-06  0.374994  0.524992  
116  0.0375088  0.412518  0.562488  
117  1.0609e-05  0.374995  0.600004  
118  0.0374833  0.412497  0.637517  
119  8.1016e-06  0.374996  0.675016  
120  0.0375157  0.412504  0.712522  
121  1.7353e-05  0.449971  8.67217e-06  
122  0.0374845  0.487501  0.0375003  
123  2.73514e-05  0.449999  0.0750021  
124  0.0375304  0.487471  0.112535  
125  -5.92562e-06  0.449998  0.15002  
126  0.0375413  0.487488  0.187528  
127  1.5563e-06  0.449987  0.22504  
128  0.0375094  0.487498  0.262505  
129  1.63812e-05  0.450009  0.300004  
130  0.037552  0.487485  0.337546  
131  9.2436e-06  0.449967  0.374972  
132  0.0375291  0.487436  0.412453  
133  5.22857e-06  0.449992  0.449976  
134  0.0374938  0.487492  0.487446  
135  2.48767e-06  0.450011  0.524977  
136  0.0375208  0.487525  0.562505  
137  -2.05527e-05  0.450019  0.599984  
138  0.0375328  0.487487  0.637555  
139  1.37247e-06  0.449969  0.675001  
140  0.0374722  0.487489  0.71249  
141  -6.54297e-06  0.524984  5.69324e-05  
142  0.0374706  0.562499  0.0375082  
143  -7.0626e-06  0.524992  0.0750273  
144  0.0375051  0.562486  0.112529  
145  3.59158e-05  0.52495  0.15003  
146  0.0375328  0.562463  0.187519  
147  2.55454e-05  0.524966  0.225032  
148  0.0375183  0.562493  0.262518  
149  4.49123e-05  0.524978  0.30005  
150  0.037517  0.562509  0.337522  
151  3.19983e-05  0.525004  0.375026  
152  0.0375101  0.562495  0.412538  
153  5.33735e-06  0.524993  0.449959  
154  0.0375053  0.562487  0.487458  
155  3.50688e-05  0.525009  0.524956  
156  0.0375231  0.562474  0.562473  
157  7.60665e-06  0.52499  0.599996  
158  0.0374971  0.562472  0.637524  
159  -2.18603e-05  0.524975  0.674999  
160  0.0374449  0.562474  0.712498  
161  1.0302e-05  0.600015  -2.41301e-05  
162  0.0374813  0.637473  0.0374921  
163  1.29105e-06  0.600006  0.075022  
164  0.0375196  0.637491  0.112529  
165  6.348e-07  0.599948  0.15002  
166  0.0374795  0.637497  0.187493  
167  1.79877e-05  0.599996  0.225  
168  0.0375062  0.637506  0.262537  
169  2.08293e-06  0.599986  0.300025  
170  0.0375045  0.637501  0.337477  
171  1.07283e-05  0.600009  0.375014  
172  0.0374945  0.637517  0.412533  
173  -1.76515e-05  0.599976  0.449983  
174  0.03749  0.637478  0.487466  
175  2.1511e-05  0.600013  0.525007  
176  0.0375229  0.637507  0.562475  
177  3.97148e-06  0.599985  0.599997  
178  0.0375009  0.637497  0.637503  
179  -1.59349e-05  0.599981  0.674994  
180  0.0375079  0.637462  0.712499  
181  1.92469e-05  0.675009  -2.42311e-05  
182  0.0375286  0.712485  0.0374758  
183  1.83219e-06  0.674975  0.0749928  
184  0.0374963  0.712475  0.11249  
185  1.67941e-05  0.674987  0.149993  
186  0.037488  0.712492  0.187506  
187  1.68929e-05  0.675003  0.225047  
188  0.0375196  0.712499  0.262524  
189  1.85107e-05  0.675004  0.300034  
190  0.0374687  0.712514  0.337512  
191  -7.96593e-06  0.675006  0.374999  
192  0.0374706  0.71249  0.412486  
193  3.08851e-06  0.675011  0.449964  
194  0.0375328  0.712504  0.48744  
195  -1.20785e-06  0.675011  0.524964  
196  0.0374876  0.712489  0.562472  
197  -2.52985e-05  0.674987  0.599958  
198  0.0375115  0.712472  0.637521  
199  4.63046e-06  0.674986  0.675017  
200  0.0375355  0.712493  0.712483  
201  0.0749907  -1.14265e-05  -1.04591e-05  
202  0.112453  0.0374912  0.0374784  
203  0.0749911  -6.51069e-06  0.0749967  
204  0.112489  0.0375156  0.112487  
205  0.0749848  1.2032e-05  0.149997  
206  0.112506  0.0374934  0.18752  
207  0.0749887  -3.10505e-06  0.225031  
208  0.112476  0.0374966  0.262486  
209  0.0749978  -1.35677e-05  0.300013  
210  0.112483  0.0375007  0.33751  
211  0.0749831  -2.91041e-05  0.374983  
212  0.112509  0.0374638  0.412463  
213  0.0749959  -2.03688e-05  0.44997  
214  0.112465  0.0374542  0.487495  
215  0.0750177  -2.78843e-05  0.525015  
216  0.112529  0.037502  0.562493  
217  0.0749942  -1.14462e-05  0.599971  
218  0.112462  0.0375108  0.637482  
219  0.0750435  -1.6525e-07  0.67497  
220  0.112507  0.037512  0.712533  
221  0.0749894  0.0750037  -4.6075e-06  
222  0.112494  0.112539  0.0375179  
223  0.0749863  0.075018  0.0749863  
224  0.1125  0.112514  0.112482  
225  0.0750008  0.0750099  0.149993  
226  0.112536  0.112509  0.187502  
227  0.0750045  0.0750155  0.224959  
228  0.11249  0.112505  0.262491  
229  0.0749884  0.0749914  0.29998  
230  0.112458  0.112521  0.337487  
231  0.0749768  0.0749993  0.374987  
232  0.112462  0.112489  0.412478  
233  0.0749989  0.0749763  0.449981  
234  0.1125  0.112486  0.487489  
235  0.0749876  0.0749877  0.524992  
236  0.112479  0.112531  0.562497  
237  0.0749947  0.0749863  0.599984  
238  0.112509  0.112502  0.6375  
239  0.0750099  0.0750045  0.675037  
240  0.112478  0.112516  0.712498  
241  0.0750065  0.150015  1.201e-05  
242  0.112492  0.187546  0.0374869  
243  0.0749922  0.150012  0.0749816  
244  0.112485  0.187517  0.112491  
245  0.0749884  0.149982  0.149981  
246  0.112478  0.187516  0.187528  
247  0.0749687  0.150006  0.225005  
248  0.112477  0.187489  0.262514  
249  0.0749569  0.150004  0.299994  
250  0.112496  0.187526  0.337466  
251  0.0750079  0.150026  0.374972  
252  0.112518  0.187488  0.412512  
253  0.0749789  0.150021  0.450001  
254  0.112514  0.18752  0.487492  
255  0.0750345  0.150033  0.524993  
256  0.112526  0.187504  0.562536  
257  0.0750074  0.150007  0.60001  
258  0.11252  0.187524  0.637502  
259  0.0749828  0.149994  0.675017  
260  0.112463  0.187487  0.712486  
261  0.0749823  0.22501  -5.28292e-07  
262  0.112473  0.262508  0.037498  
263  0.0749582  0.225002  0.0750283  
264  0.112517  0.262522  0.112501  
265  0.0750001  0.225004  0.150003  
266  0.112465  0.262497  0.187543  
267  0.0749823  0.224998  0.224995  
268  0.112501  0.26252  0.262496  
269  0.075006  0.225031  0.300009  
270  0.112526  0.262511  0.337458  
271  0.0750307  0.225014  0.375013  
272  0.112541  0.2625  0.412548  
273  0.0750046  0.224994  0.450007  
274  0.112553  0.2625  0.48749  
275  0.0750487  0.22504  0.525006  
276  0.112527  0.262509  0.562507  
277  0.0749964  0.225005  0.60003  
278  0.112459  0.262491  0.637507  
279  0.0749955  0.224988  0.675009  
280  0.11247  0.262505  0.712501  
281  0.0749751  0.299979  -2.7145e-06  
282  0.112494  0.337497  0.0375394  
283  0.0749939  0.300015  0.0750014  
284  0.112462  0.337523  0.112508  
285  0.0749935  0.299999  0.149995  
286  0.112457  0.337496  0.187505  
287  0.074976  0.300016  0.225009  
288  0.112514  0.337503  0.262508  
289  0.075002  0.299996  0.299995  
290  0.112527  0.337492  0.337474  
291  0.0750372  0.29998  0.375013  
292  0.1125  0.337506  0.412502  
293  0.0749913  0.299994  0.449983  
294  0.112549  0.337487  0.487509  
295  0.0750075  0.30002  0.524998  
296  0.112503  0.337514  0.562512  
297  0.0750041  0.300004  0.599997  
298  0.112486  0.337518  0.637487  
299  0.0750059  0.300022  0.674992  
300  0.112476  0.337503  0.712537  
301  0.0749917  0.374973  2.94289e-05  
302  0.11252  0.412515  0.037498  
303  0.0749785  0.375009  0.0750102  
304  0.112494  0.412551  0.112551  
305  0.0749827  0.374993  0.150004  
306  0.112478  0.412515  0.18749  
307  0.0750222  0.375009  0.225004  
308  0.11251  0.412493  0.262528  
309  0.0750056  0.37498  0.299984  
310  0.112512  0.412479  0.337484  
311  0.0750122  0.375004  0.374977  
312  0.112509  0.412474  0.412481  
313  0.0750118  0.374989  0.449984  
314  0.112514  0.412446  0.487479  
315  0.0750169  0.374966  0.525014  
316  0.112527  0.412497  0.5625  
317  0.0750101  0.375036  0.599996  
318  0.11253  0.412484  0.637535  
319  0.07498  0.374994  0.67503  
320  0.112499  0.412478  0.712511  
321  0.0750045  0.450025  -1.8843e-06  
322  0.112541  0.487491  0.0375357  
323  0.0750072  0.449996  0.0749961  
324  0.112492  0.48751  0.11255  
325  0.0749976  0.449987  0.150031  
326  0.112503  0.487479  0.187492  
327  0.0750062  0.449997  0.225005  
328  0.112485  0.48751  0.262512  
329  0.0750314  0.449986  0.299987  
330  0.11248  0.487498  0.337539  
331  0.0750108  0.449965  0.374985  
332  0.112491  0.48747  0.412507  
333  0.0750023  0.449978  0.45001  
334  0.112487  0.487488  0.487496  
335  0.0750049  0.449982  0.525004  
336  0.112503  0.4875  0.562539  
337  0.0750212  0.449995  0.600038  
338  0.112502  0.487501  0.637531  
339  0.0750123  0.449965  0.675035  
340  0.112546  0.487475  0.712536  
341  0.0749993  0.524999  1.76872e-05  
342  0.11252  0.562518  0.0375096  
343  0.0749972  0.524987  0.0750053  
344  0.112502  0.562508  0.112512  
345  0.0750107  0.525011  0.149982  
346  0.112531  0.562494  0.187487  
347  0.0750215  0.524991  0.224992  
348  0.112499  0.562477  0.262541  
349  0.0749998  0.524988  0.300048  
350  0.112499  0.562486  0.337505  
351  0.0750036  0.525008  0.375027  
352  0.112463  0.562522  0.412527  
353  0.075028  0.524985  0.450005  
354  0.112526  0.562506  0.487525  
355  0.0750243  0.524975  0.524996  
356  0.112494  0.562506  0.562537  
357  0.0750009  0.524979  0.600027  
358  0.112481  0.562479  0.637504  
359  0.075001  0.524989  0.67503  
360  0.112508  0.562462  0.712505  
361  0.0750153  0.599972  -1.70881e-05  
362  0.112512  0.637498  0.037488  
363  0.0749837  0.600001  0.0749753  
364  0.112488  0.637472  0.112483  
365  0.075009  0.599986  0.15001  
366  0.11252  0.637503  0.187499  
367  0.0750052  0.599995  0.225011  
368  0.112516  0.63749  0.262513  
369  0.0750072  0.600004  0.300015  
370  0.112509  0.637495  0.337527  
371  0.0749972  0.600004  0.375013  
372  0.112489  0.637514  0.412485  
373  0.0750203  0.600001  0.449998  
374  0.112504  0.637509  0.487497  
375  0.0750034  0.599995  0.524989  
376  0.112507  0.637514  0.56254  
377  0.0749833  0.600009  0.600005  
378  0.11253  0.637499  0.637512  
379  0.0750264  0.599966  0.675002  
380  0.11251  0.637462  0.712484  
381  0.075013  0.674945  -2.60181e-05  
382  0.112529  0.712494  0.0374818  
383  0.0750142  0.675004  0.0749783  
384  0.11249  0.712531  0.1125  
385  0.0750291  0.674982  0.150004  
386  0.112493  0.712512  0.187481  
387  0.0750143  0.675002  0.224978  
388  0.112538  0.712511  0.262497  
389  0.0750255  0.675017  0.300008  
390  0.11253  0.712515  0.337488  
391  0.0749756  0.674997  0.374997  
392  0.112537  0.712487  0.41252  
393  0.0750255  0.675018  0.450009  
394  0.112512  0.712486  0.487519  
395  0.0749824  0.674978  0.524985  
396  0.112495  0.712484  0.562509  
397  0.0749925  0.674998  0.600008  
398  0.112476  0.712466  0.6375  
399  0.0750101  0.67496  0.675002  
400  0.112502  0.71247  0.712495  
401  0.150011  -2.63941e-05  -3.81081e-05  
402  0.187469  0.0374909  0.037483  
403  0.149976  -2.97081e-06  0.0749936  
404  0.187468  0.0374761  0.112478  
405  0.150006  1.225e-06  0.149996  
406  0.187502  0.0375406  0.187524  
407  0.149994  2.33743e-05  0.224987  
408  0.187502  0.0375244  0.262463  
409  0.150013  1.43304e-05  0.300001  
410  0.187508  0.0374926  0.337483  
411  0.150001  2.41669e-05  0.375009  
412  0.187478  0.0374729  0.412516  
413  0.150004  4.65491e-06  0.450013  
414  0.187482  0.0375065  0.487518  
415  0.150015  -1.32754e-05  0.524988  
416  0.187483  0.0375118  0.562485  
417  0.149977  -1.44759e-05  0.600014  
418  0.187478  0.0374929  0.637488  
419  0.149997  -4.06812e-05  0.675027  
420  0.187511  0.0374909  0.712524  
421  0.149976  0.075033  3.48355e-06  
422  0.187485  0.112488  0.0375022  
423  0.149979  0.075011  0.0749755  
424  0.187509  0.112506  0.112467  
425  0.150007  0.0749969  0.149983  
426  0.187474  0.112549  0.18753  
427  0.149989  0.0750122  0.225004  
428  0.18746  0.112508  0.262516  
429  0.14997  0.075001  0.299992  
430  0.187474  0.112514  0.337462  
431  0.150014  0.0749952  0.374955  
432  0.187472  0.11251  0.412478  
433  0.149968  0.07499  0.449994  
434  0.187504  0.112482  0.487529  
435  0.149984  0.0750019  0.524996  
436  0.187492  0.112494  0.562485  
437  0.149974  0.0749985  0.599992  
438  0.18748  0.112501  0.637522  
439  0.149998  0.0749969  0.674994  
440  0.187504  0.11252  0.712492  
441  0.149974  0.150035  -8.51945e-06  
442  0.187478  0.187508  0.0375082  
443  0.149979  0.150013  0.0749827  
444  0.18745  0.18751  0.112495  
445  0.149971  0.15001  0.150002  
446  0.187476  0.187533  0.187469  
447  0.149986  0.150036  0.225003  
448  0.187489  0.187526  0.262468  
449  0.149995  0.150019  0.299995  
450  0.187472  0.187515  0.337474  
451  0.149992  0.149997  0.374988  
452  0.187459  0.187522  0.412519  
453  0.149999  0.149987  0.450013  
454  0.187514  0.187474  0.487525  
455  0.149986  0.150005  0.524997  
456  0.187492  0.187469  0.562515  
457  0.150002  0.149992  0.600025  
458  0.187499  0.187481  0.63754  
459  0.149987  0.149999  0.675003  
460  0.187501  0.187475  0.712518  
461  0.149998  0.22501  -9.91713e-06  
462  0.1875  0.26253  0.0375272  
463  0.149975  0.225025  0.0749872  
464  0.187476  0.26249  0.112508  
465  0.149957  0.225018  0.150025  
466  0.187478  0.262509  0.187513  
467  0.150004  0.225011  0.225023  
468  0.187481  0.2625  0.262486  
469  0.150016  0.225025  0.299994  
470  0.187512  0.262499  0.337481  
471  0.150004  0.225036  0.375001  
472  0.187532  0.262469  0.412527  
473  0.150035  0.225006  0.450017  
474  0.187509  0.262477  0.487513  
475  0.150015  0.225  0.525029  
476  0.1875  0.262492  0.56254  
477  0.150014  0.225006  0.599996  
478  0.187492  0.262498  0.637515  
479  0.150006  0.225011  0.675021  
480  0.187502  0.262496  0.712514  
481  0.149971  0.300023  3.31547e-05  
482  0.187484  0.337488  0.0375082  
483  0.149989  0.300026  0.0750268  
484  0.187493  0.337514  0.112507  
485  0.149987  0.300027  0.150018  
486  0.187486  0.33751  0.187547  
487  0.149982  0.300027  0.225003  
488  0.187482  0.337541  0.262519  
489  0.150019  0.300004  0.299986  
490  0.187491  0.337486  0.337483  
491  0.149995  0.300009  0.375001  
492  0.187477  0.337508  0.412486  
493  0.15004  0.300005  0.449994  
494  0.187507  0.337465  0.48751  
495  0.15001  0.299978  0.525018  
496  0.187485  0.337485  0.562516  
497  0.149984  0.299988  0.600004  
498  0.187496  0.33748  0.637505  
499  0.149974  0.299997  0.67502  
500  0.187484  0.337503  0.712512  
501  0.150003  0.374981  1.35204e-05  
502  0.187491  0.412524  0.0375065  
503  0.149988  0.375032  0.0750435  
504  0.18751  0.4125  0.112534  
505  0.149979  0.375  0.150044  
506  0.187536  0.412464  0.187527  
507  0.149972  0.375005  0.224996  
508  0.187516  0.412524  0.262514  
509  0.150022  0.375027  0.299992  
510  0.187472  0.412513  0.337498  
511  0.150006  0.374986  0.374999  
512  0.187473  0.412494  0.412506  
513  0.150004  0.375001  0.450002  
514  0.187525  0.412507  0.487493  
515  0.150033  0.374991  0.524998  
516  0.187487  0.412504  0.562483  
517  0.150031  0.375007  0.599996  
518  0.187544  0.412504  0.637526  
519  0.149996  0.374984  0.674997  
520  0.187506  0.412471  0.71253  
521  0.15002  0.449987  3.66279e-05  
522  0.187535  0.487512  0.0375103  
523  0.150022  0.450023  0.075026  
524  0.187506  0.487492  0.112543  
525  0.150044  0.44999  0.150031  
526  0.187478  0.487507  0.18756  
527  0.150002  0.449977  0.225026  
528  0.187515  0.487511  0.262506  
529  0.150007  0.450021  0.300044  
530  0.187527  0.487477  0.337529  
531  0.150007  0.450014  0.375008  
532  0.187556  0.48752  0.412474  
533  0.150027  0.450022  0.449986  
534  0.187545  0.487514  0.487509  
535  0.149977  0.450004  0.524979  
536  0.18753  0.487504  0.56248  
537  0.150013  0.450013  0.600013  
538  0.187529  0.487495  0.637502  
539  0.150024  0.449993  0.675017  
540  0.187491  0.487486  0.712538  
541  0.149992  0.524987  4.13237e-05  
542  0.187489  0.56247  0.0374806  
543  0.150019  0.525004  0.075018  
544  0.187539  0.562495  0.11251  
545  0.150028  0.524992  0.150019  
546  0.187525  0.562503  0.187557  
547  0.149997  0.524988  0.225037  
548  0.187515  0.562554  0.26251  
549  0.150025  0.524985  0.300014  
550  0.187537  0.562509  0.337484  
551  0.149995  0.525011  0.375028  
552  0.187525  0.562499  0.41249  
553  0.150019  0.524984  0.449997  
554  0.187515  0.56252  0.487499  
555  0.150002  0.525001  0.525011  
556  0.187494  0.562537  0.562513  
557  0.15002  0.525011  0.6  
558  0.187528  0.562497  0.637483  
559  0.150023  0.524984  0.675012  
560  0.187488  0.562506  0.712507  
561  0.150004  0.600003  -1.34962e-05  
562  0.18754  0.637484  0.0374878  
563  0.150011  0.599994  0.0750043  
564  0.187509  0.637489  0.112499  
565  0.15003  0.600003  0.150012  
566  0.187505  0.637521  0.187521  
567  0.149981  0.600024  0.225018  
568  0.187503  0.637487  0.262499  
569  0.149992  0.6  0.300016  
570  0.187489  0.637521  0.337489  
571  0.149997  0.599984  0.375007  
572  0.187503  0.637526  0.412499  
573  0.15003  0.600005  0.449999  
574  0.187493  0.637522  0.487505  
575  0.149987  0.600007  0.525002  
576  0.187515  0.637491  0.562509  
577  0.150001  0.600029  0.60001  
578  0.187557  0.637537  0.637508  
579  0.150005  0.599977  0.674982  
580  0.187523  0.637486  0.712502  
581  0.15001  0.674961  4.08652e-06  
582  0.187499  0.712538  0.0374879  
583  0.150055  0.674986  0.0750166  
584  0.187512  0.712514  0.112498  
585  0.149993  0.675018  0.150002  
586  0.187514  0.712545  0.187538  
587  0.150006  0.675029  0.224996  
588  0.187505  0.712507  0.262474  
589  0.150012  0.675003  0.300007  
590  0.187474  0.712522  0.337522  
591  0.149983  0.674987  0.374997  
592  0.187473  0.712508  0.412468  
593  0.150014  0.674984  0.449993  
594  0.187502  0.712498  0.487475  
595  0.150023  0.675012  0.525025  
596  0.187511  0.712492  0.562528  
597  0.150011  0.675021  0.600009  
598  0.187534  0.712484  0.637504  
599  0.150015  0.67498  0.674997  
600  0.187535  0.712432  0.712501  
601  0.225014  -6.37238e-06  -1.20338e-05  
602  0.262509  0.0375201  0.0375119  
603  0.224992  1.04758e-05  0.0749964  
604  0.262484  0.0375317  0.112502  
605  0.225  2.90253e-05  0.150013  
606  0.262479  0.0375043  0.187525  
607  0.225003  1.57292e-05  0.225035  
608  0.262485  0.0374838  0.262512  
609  0.225005  1.0691e-06  0.299994  
610  0.262479  0.0375317  0.337477  
611  0.225014  1.90991e-05  0.375007  
612  0.262489  0.0375182  0.412528  
613  0.22499  1.75175e-05  0.450012  
614  0.262511  0.0375003  0.487484  
615  0.224996  7.6901e-06  0.524998  
616  0.262479  0.0375154  0.562506  
617  0.22498  2.31276e-05  0.599988  
618  0.262462  0.0375254  0.637497  
619  0.224983  -1.83906e-05  0.674994  
620  0.2625  0.037504  0.712453  
621  0.225004  0.0750089  -1.44292e-05  
622  0.262505  0.112492  0.0374993  
623  0.224989  0.0749817  0.0750206  
624  0.262485  0.11251  0.112499  
625  0.224974  0.0750197  0.150019  
626  0.262502  0.112504  0.187535  
627  0.225005  0.075044  0.225009  
628  0.262501  0.112546  0.262474  
629  0.224989  0.075038  0.29997  
630  0.262483  0.112515  0.337477  
631  0.224985  0.0750084  0.374984  
632  0.26248  0.112505  0.412499  
633  0.224968  0.0750089  0.450002  
634  0.262502  0.112494  0.487483  
635  0.22503  0.0750205  0.52501  
636  0.262502  0.112495  0.562499  
637  0.224968  0.07501  0.6  
638  0.262479  0.112462  0.637491  
639  0.224963  0.0750097  0.675015  
640  0.262486  0.112502  0.712497  
641  0.224987  0.149981  1.6783e-05  
642  0.262507  0.187455  0.0375077  
643  0.224997  0.149994  0.0749868  
644  0.262493  0.187517  0.112487  
645  0.224998  0.150005  0.149998  
646  0.262537  0.187508  0.187503  
647  0.224988  0.150029  0.224986  
648  0.262521  0.187517  0.262465  
649  0.224995  0.150024  0.299979  
650  0.262491  0.187514  0.337483  
651  0.224975  0.150014  0.37499  
652  0.262516  0.187487  0.412501  
653  0.224956  0.149983  0.449991  
654  0.262514  0.187475  0.487502  
655  0.224997  0.15  0.524997  
656  0.262473  0.18748  0.562485  
657  0.224984  0.149991  0.599997  
658  0.262495  0.187452  0.637498  
659  0.224983  0.149979  0.674991  
660  0.262505  0.187478  0.712492  
661  0.225001  0.224982  1.11337e-05  
662  0.262521  0.262508  0.0374979  
663  0.224978  0.225002  0.074979  
664  0.262528  0.26248  0.112477  
665  0.224982  0.224977  0.149978  
666  0.262523  0.262485  0.187463  
667  0.224994  0.225031  0.224986  
668  0.26253  0.2625  0.262472  
669  0.224992  0.224998  0.299961  
670  0.262476  0.262484  0.337479  
671  0.22501  0.224986  0.375004  
672  0.262488  0.262541  0.412491  
673  0.225028  0.224988  0.450008  
674  0.26253  0.262485  0.487514  
675  0.224985  0.224974  0.52502  
676  0.262484  0.262505  0.562517  
677  0.225  0.224965  0.600002  
678  0.262489  0.26251  0.637513  
679  0.225003  0.224968  0.675013  
680  0.262491  0.262473  0.712498  
681  0.225011  0.299997  2.64506e-05  
682  0.262518  0.337517  0.0375035  
683  0.225013  0.300025  0.0750234  
684  0.262503  0.337504  0.112549  
685  0.224994  0.299976  0.150004  
686  0.262513  0.337521  0.187513  
687  0.225004  0.300013  0.225002  
688  0.2625  0.337512  0.26251  
689  0.225032  0.300012  0.299994  
690  0.262514  0.337481  0.337517  
691  0.22499  0.299989  0.37499  
692  0.262485  0.337499  0.412462  
693  0.224997  0.299988  0.45001  
694  0.26246  0.337468  0.487529  
695  0.22501  0.299967  0.525005  
696  0.262507  0.337475  0.562531  
697  0.22498  0.299995  0.600005  
698  0.262519  0.337434  0.637532  
699  0.224979  0.299978  0.675044  
700  0.262514  0.337488  0.71251  
701  0.224987  0.37499  2.74339e-05  
702  0.262494  0.4125  0.0375327  
703  0.224984  0.375004  0.0750107  
704  0.262507  0.412511  0.112522  
705  0.224983  0.374967  0.150005  
706  0.26248  0.412521  0.187531  
707  0.225024  0.375008  0.225044  
708  0.262514  0.412526  0.262509  
709  0.224991  0.374991  0.300017  
710  0.262491  0.412501  0.337504  
711  0.224966  0.375005  0.37498  
712  0.262485  0.412466  0.412459  
713  0.224993  0.375004  0.450006  
714  0.262551  0.412475  0.487544  
715  0.224977  0.374993  0.525015  
716  0.262514  0.412497  0.562495  
717  0.224999  0.374986  0.600015  
718  0.262532  0.412494  0.637481  
719  0.225024  0.374964  0.675018  
720  0.262512  0.412482  0.712534  
721  0.225031  0.449987  4.42183e-06  
722  0.262505  0.487487  0.0375198  
723  0.225032  0.450001  0.0750505  
724  0.262513  0.487517  0.112569  
725  0.225007  0.450015  0.150041  
726  0.262502  0.487557  0.18754  
727  0.22501  0.45001  0.225007  
728  0.262499  0.487505  0.262515  
729  0.22501  0.449989  0.300009  
730  0.262467  0.487506  0.337519  
731  0.224978  0.449997  0.375024  
732  0.26251  0.487526  0.412499  
733  0.225027  0.449983  0.449994  
734  0.262511  0.487495  0.487521  
735  0.225018  0.449972  0.525008  
736  0.262497  0.487491  0.562485  
737  0.225012  0.450001  0.599998  
738  0.262549  0.487483  0.637524  
739  0.225012  0.449988  0.675016  
740  0.2625  0.48749  0.712502  
741  0.224998  0.524985  -1.78465e-06  
742  0.262496  0.562504  0.0374974  
743  0.225021  0.525004  0.0750165  
744  0.262501  0.562508  0.112519  
745  0.224988  0.524996  0.150036  
746  0.262518  0.562496  0.187528  
747  0.224981  0.525  0.225026  
748  0.262494  0.562544  0.262489  
749  0.225013  0.525  0.29999  
750  0.262484  0.562504  0.337505  
751  0.225021  0.525026  0.374984  
752  0.262517  0.562469  0.412493  
753  0.22501  0.525006  0.450008  
754  0.262492  0.562464  0.487513  
755  0.224983  0.525006  0.525009  
756  0.262451  0.56251  0.562521  
757  0.225008  0.525004  0.600012  
758  0.262509  0.562508  0.637514  
759  0.225014  0.524989  0.675009  
760  0.262518  0.562477  0.712516  
761  0.225  0.59996  9.16381e-06  
762  0.262521  0.637513  0.0375123  
763  0.225  0.599992  0.0749824  
764  0.26254  0.637534  0.11252  
765  0.225015  0.60002  0.150003  
766  0.262505  0.637529  0.187513  
767  0.225022  0.600013  0.22501  
768  0.262522  0.637518  0.262509  
769  0.225004  0.600025  0.299999  
770  0.262457  0.6375  0.337476  
771  0.225  0.600046  0.374997  
772  0.262485  0.637516  0.412523  
773  0.225005  0.599995  0.449992  
774  0.262481  0.637485  0.487469  
775  0.225018  0.599998  0.525001  
776  0.262488  0.637533  0.562548  
777  0.225018  0.599994  0.600022  
778  0.26247  0.637521  0.637513  
779  0.225022  0.599996  0.675033  
780  0.262515  0.637483  0.712552  
781  0.224997  0.674998  2.47009e-05  
782  0.262509  0.712465  0.0375117  
783  0.225002  0.675025  0.0749897  
784  0.262474  0.712503  0.112539  
785  0.22497  0.675007  0.150007  
786  0.262472  0.712509  0.187535  
787  0.225012  0.675003  0.225025  
788  0.262527  0.712522  0.262524  
789  0.225002  0.675032  0.300014  
790  0.262491  0.712546  0.337504  
791  0.225025  0.675013  0.374987  
792  0.262509  0.712521  0.41253  
793  0.224978  0.675014  0.449985  
794  0.262492  0.712514  0.487507  
795  0.225008  0.674988  0.525008  
796  0.262479  0.712497  0.562497  
797  0.224994  0.675033  0.599995  
798  0.262477  0.712488  0.637519  
799  0.225029  0.674993  0.675031  
800  0.262513  0.712456  0.712515  
801  0.299992  6.1553e-06  -4.97041e-06  
802  0.337501  0.037576  0.0374411  
803  0.299994  1.31962e-06  0.0750007  
804  0.337466  0.037531  0.112468  
805  0.300003  1.68906e-05  0.150006  
806  0.3375  0.0374939  0.187509  
807  0.299981  3.29777e-06  0.225009  