ITEM: TIMESTEP
30000
ITEM: NUMBER OF ATOMS
2000
ITEM: BOX BOUNDS xy xz yz pp pp pp
3.2830014349635929e-02 2.8162800781744323e+01 -3.6761501329336359e-03
2.5372575724550955e-02 2.8150492793677472e+01 -6.9305377346699022e-04
7.9949104146439964e-02 2.8120050895853950e+01 -2.4134630598059786e-02
ITEM: ATOMS id f_avePos[1] f_avePos[2] f_avePos[3]
2 0.0500043 0.0499683 0.0499701
4 0.0500401 0.0500074 0.149991
22 0.050007 0.150117 0.0499556
24 0.0499953 0.149958 0.149899
202 0.149944 0.0499356 0.0499636
203 0.0999681 -5.60057e-05 0.100002
204 0.149967 0.0500244 0.149984
222 0.149975 0.150076 0.0500452
223 0.0999355 0.100006 0.0999758
224 0.150069 0.150054 0.149868
201 0.0999943 -7.35408e-05 1.36698e-06
402 0.250031 0.0500399 0.0499252
404 0.250019 0.0499859 0.149935
421 0.199996 0.100049 1.36348e-05
422 0.250016 0.149999 0.0499809
423 0.200012 0.100011 0.0999597
424 0.249994 0.150059 0.149937
603 0.300023 1.32403e-05 0.100029
623 0.300022 0.0999767 0.100045
401 0.200031 -3.07393e-05 -7.27599e-05
621 0.30003 0.100009 -8.4054e-05
602 0.350067 0.0499814 0.0499933
604 0.350007 0.0500943 0.15008
622 0.350003 0.149968 0.0499915
624 0.349964 0.150009 0.149994
802 0.450026 0.050079 0.0499152
804 0.449964 0.0499805 0.149915
822 0.449994 0.149964 0.0499322
823 0.399971 0.100013 0.0999848
824 0.449995 0.149989 0.150016
801 0.400019 -1.73778e-05 -6.74852e-06
1002 0.550002 0.0499921 0.0499563
1004 0.550046 0.0500424 0.150048
1022 0.549965 0.150012 0.0499438
1023 0.500029 0.0999927 0.0999908
1024 0.549972 0.150074 0.15007
1202 0.650046 0.0500885 0.0500399
1204 0.650006 0.0499593 0.15008
1222 0.650028 0.149961 0.0500084
1223 0.599977 0.100048 0.0999902
1224 0.649992 0.150034 0.150021
1021 0.499987 0.100006 -0.000101787
1221 0.59997 0.099967 -2.00002e-05
1001 0.499956 -7.34367e-05 3.66595e-06
1402 0.749986 0.0500227 0.0500163
1404 0.749841 0.049996 0.14998
1422 0.749893 0.150041 0.0499173
1423 0.69994 0.0999986 0.100031
1424 0.749877 0.149936 0.150017
1623 0.799929 0.100046 0.100017
1401 0.699986 2.67753e-05 5.28281e-05
23 -1.55001e-05 0.100008 0.0998968
1602 0.849983 0.049984 0.049973
1604 0.85003 0.0499956 0.149975
1622 0.850063 0.149987 0.0499402
1624 0.849981 0.150026 0.149979
1802 0.949881 0.0500313 0.0500301
1804 0.949915 0.0499869 0.150026
1822 0.949949 0.150018 0.0498779
1823 0.89999 0.100027 0.100008
1824 0.950023 0.149961 0.150002
1803 0.899941 -7.28682e-06 0.0999983
42 0.0499637 0.249967 0.0499375
44 0.0501102 0.249953 0.149985
242 0.14999 0.250043 0.0499566
243 0.10002 0.20006 0.0999557
244 0.150013 0.25002 0.149982
263 0.0999549 0.300005 0.100051
63 -1.06247e-05 0.299963 0.0999861
441 0.199947 0.200082 -1.613e-06
442 0.249937 0.250007 0.0500352
443 0.199995 0.200024 0.0999565
444 0.249901 0.250082 0.149994
463 0.1999 0.300064 0.099966
643 0.300023 0.200049 0.0999672
663 0.29997 0.300038 0.0999086
641 0.300019 0.199966 2.6758e-05
661 0.30001 0.29996 -1.50982e-05
642 0.350049 0.249956 0.0499396
644 0.349944 0.250034 0.150045
842 0.449914 0.250001 0.0498901
843 0.400027 0.199992 0.100039
844 0.450004 0.250005 0.150049
863 0.400045 0.299929 0.0999935
841 0.399988 0.200003 -4.35697e-05
861 0.399995 0.300051 -3.2883e-05
1042 0.550014 0.249997 0.0499923
1043 0.499921 0.199978 0.0999743
1044 0.549978 0.25004 0.149941
1063 0.499963 0.30002 0.0999618
1242 0.650008 0.250015 0.0499663
1243 0.599936 0.200001 0.0999685
1244 0.649918 0.250049 0.150017
1263 0.60001 0.300054 0.0999299
1061 0.500008 0.30003 -2.70546e-05
1041 0.500016 0.199984 -4.97271e-05
1241 0.599976 0.200018 -3.75305e-05
1261 0.600025 0.30006 -9.78043e-05
1441 0.69993 0.20005 -3.9294e-05
1442 0.749987 0.250048 0.0500584
1443 0.700006 0.199991 0.100005
1444 0.750059 0.249991 0.149948
1463 0.699985 0.299992 0.0999872
1643 0.799965 0.199916 0.100015
1663 0.800075 0.300017 0.100004
43 -2.63649e-05 0.200009 0.0999358
1642 0.849913 0.250064 0.0499376
1644 0.849996 0.250014 0.15009
1841 0.900042 0.200118 -7.60836e-05
1842 0.950021 0.250043 0.0499333
1843 0.899971 0.200062 0.0999757
1844 0.950011 0.24994 0.15
1863 0.900062 0.300032 0.0999749
61 -2.32526e-05 0.300072 -2.83273e-05
1861 0.89994 0.300053 -5.24983e-05
62 0.0499338 0.350013 0.0500387
64 0.0499644 0.350034 0.149948
82 0.049965 0.450043 0.0500071
84 0.0499069 0.450056 0.149993
262 0.149988 0.350037 0.0499867
264 0.150038 0.349998 0.150031
281 0.0999775 0.399907 1.8849e-05
282 0.149886 0.449982 0.0500161
283 0.0999688 0.399971 0.100024
284 0.149934 0.450061 0.150013
83 -3.56113e-05 0.4001 0.100012
301 0.0999529 0.500013 1.85805e-05
303 0.0999338 0.499988 0.100051
462 0.24993 0.350084 0.0500209
464 0.249975 0.350009 0.150009
482 0.250011 0.45001 0.0499646
483 0.199944 0.400059 0.100015
484 0.249951 0.450026 0.150027
683 0.300002 0.400015 0.100038
503 0.199931 0.500011 0.100052
703 0.299992 0.49996 0.100038
681 0.299966 0.399954 -6.20283e-05
701 0.30003 0.500038 2.04603e-05
662 0.35005 0.350037 0.0499973
664 0.350066 0.34996 0.150021
682 0.349947 0.450048 0.0499864
684 0.350004 0.449984 0.150098
862 0.450001 0.350092 0.0499355
864 0.449959 0.349949 0.150125
882 0.449959 0.449979 0.0500546
883 0.400008 0.400022 0.100071
884 0.449977 0.450046 0.149985
903 0.399926 0.500038 0.0999527
881 0.4 0.400027 -4.16356e-05
901 0.400074 0.499938 2.64905e-05
1062 0.549898 0.350017 0.0499607
1064 0.549959 0.349951 0.150064
1082 0.550024 0.45001 0.0500039
1083 0.499962 0.399962 0.100058
1084 0.549897 0.450059 0.149985
1262 0.649996 0.349989 0.0499923
1264 0.649989 0.350031 0.149966
1281 0.599993 0.400038 1.2956e-06
1282 0.650047 0.45002 0.049924
1283 0.599939 0.400013 0.10001
1284 0.649994 0.450038 0.149964
1303 0.60001 0.49999 0.100002
1103 0.500001 0.500011 0.099922
1081 0.500053 0.400015 2.87752e-06
1462 0.749978 0.349943 0.0499653
1464 0.749972 0.350015 0.149981
1481 0.699973 0.399993 -4.49042e-05
1482 0.749979 0.450043 0.0499259
1483 0.700016 0.400009 0.100012
1484 0.749987 0.450113 0.149914
1681 0.79999 0.399961 -1.16808e-05
1683 0.79996 0.399986 0.0999643
1701 0.799985 0.500001 -2.7816e-05
1503 0.699965 0.500092 0.0999311
1662 0.850037 0.349958 0.0499993
1664 0.849949 0.349929 0.150032
1682 0.849949 0.450026 0.0499318
1684 0.849944 0.450037 0.149966
1862 0.950028 0.350024 0.0500183
1864 0.950048 0.350023 0.150053
1882 0.949967 0.450069 0.0499888
1883 0.899937 0.400003 0.099993
1884 0.949875 0.449971 0.150019
103 -0.000133738 0.499984 0.100071
1903 0.899947 0.500027 0.0999964
1881 0.9 0.40001 9.20921e-06
102 0.0499777 0.549926 0.0500327
104 0.0499617 0.549963 0.150069
122 0.0499098 0.650022 0.0499404
123 1.9506e-05 0.599985 0.100025
124 0.0499396 0.649916 0.150085
302 0.14997 0.549984 0.0500069
304 0.149903 0.549967 0.150136
322 0.15003 0.650012 0.050106
323 0.0999609 0.599967 0.10001
324 0.150022 0.650021 0.150081
321 0.099978 0.600022 4.55421e-05
502 0.249956 0.549999 0.0500256
504 0.25004 0.54997 0.150052
522 0.25002 0.650084 0.0500354
523 0.199968 0.599994 0.10007
524 0.25006 0.650042 0.149981
723 0.3 0.60004 0.100021
721 0.300015 0.600013 -1.43299e-05
702 0.349938 0.550008 0.0500093
704 0.34999 0.55008 0.149989
722 0.350055 0.650008 0.0500079
724 0.349955 0.650062 0.150052
902 0.450036 0.549992 0.0499624
904 0.449996 0.549964 0.149892
921 0.400017 0.599956 -9.30746e-07
922 0.450024 0.649959 0.0500303
923 0.399981 0.599996 0.10001
924 0.449949 0.649946 0.149928
1123 0.500086 0.599963 0.100022
1301 0.599984 0.499998 -2.30369e-05
1102 0.549997 0.54995 0.049931
1104 0.55003 0.550026 0.149997
1122 0.549893 0.65003 0.0500226
1124 0.550028 0.650021 0.150001
1302 0.650005 0.550041 0.0500306
1304 0.650011 0.550029 0.150048
1322 0.650034 0.649994 0.0500764
1323 0.600017 0.599985 0.0999726
1324 0.650039 0.650093 0.150039
1321 0.599987 0.600011 7.12807e-05
1502 0.750036 0.55003 0.0499807
1504 0.749977 0.549996 0.149917
1522 0.749952 0.649982 0.0499894
1523 0.699989 0.600057 0.10005
1524 0.749919 0.650082 0.15008
1703 0.800016 0.500014 0.0999845
1723 0.800079 0.600068 0.100108
1521 0.699983 0.59998 -1.96206e-05
1721 0.800025 0.59996 3.03266e-05
1702 0.849939 0.549951 0.0500148
1704 0.850016 0.549988 0.150072
1722 0.850057 0.649975 0.0499873
1724 0.850051 0.65006 0.150076
1902 0.950067 0.550017 0.050001
1904 0.949956 0.550056 0.150022
1922 0.950012 0.649982 0.0498693
1923 0.89998 0.59998 0.0999431
1924 0.950035 0.649983 0.150058
142 0.0499749 0.749989 0.0499948
144 0.0499584 0.749981 0.150097
161 2.15183e-05 0.800076 -5.54303e-05
342 0.150031 0.750061 0.0500603
343 0.0999706 0.699913 0.100078
344 0.15005 0.750089 0.150015
363 0.0999763 0.799986 0.0999999
143 -1.5404e-05 0.699987 0.10001
341 0.100032 0.699981 3.19791e-05
542 0.249996 0.749865 0.0499567
543 0.199982 0.700023 0.100055
544 0.250069 0.749984 0.15004
563 0.200051 0.799998 0.10002
743 0.300019 0.700012 0.0999769
763 0.299976 0.799943 0.09998
561 0.200002 0.799996 -2.76452e-06
741 0.300001 0.699971 -5.28622e-05
761 0.29998 0.799927 5.13521e-05
742 0.349952 0.749967 0.0499833
744 0.349899 0.750015 0.150074
942 0.449973 0.749955 0.05002
943 0.399935 0.700044 0.100007
944 0.449966 0.749933 0.150046
963 0.399987 0.799972 0.0999959
1163 0.500015 0.800015 0.100011
1143 0.499966 0.700006 0.100007
941 0.399976 0.699995 4.15679e-05
961 0.400041 0.799989 6.59374e-05
1161 0.500028 0.800026 3.66599e-05
1142 0.550019 0.749911 0.0500484
1144 0.55 0.74997 0.150029
1342 0.65011 0.749976 0.0499553
1343 0.600012 0.700014 0.100007
1344 0.650029 0.750015 0.150072
1363 0.600027 0.800032 0.0999843
1361 0.600013 0.799953 5.81512e-05
1541 0.700025 0.700028 -5.63125e-05
1542 0.750005 0.749979 0.0499989
1543 0.699983 0.699998 0.100018
1544 0.750025 0.749955 0.149902
1563 0.699958 0.799983 0.0999238
1741 0.800024 0.700014 -8.77261e-06
1743 0.800007 0.699951 0.099979
1763 0.800022 0.799956 0.0999626
1561 0.700075 0.800049 -5.14709e-05
163 -1.09218e-05 0.800043 0.100033
1742 0.850069 0.750057 0.0500359
1744 0.849987 0.750002 0.149977
1942 0.950052 0.750095 0.0499941
1943 0.900054 0.699985 0.100042
1944 0.950049 0.749934 0.149979
1963 0.900012 0.799982 0.100047
162 0.0499524 0.849959 0.0500482
164 0.0499627 0.849986 0.150032
182 0.0499322 0.949924 0.0500197
184 0.0499285 0.94999 0.150002
362 0.15003 0.849975 0.0500174
364 0.150056 0.849928 0.149989
382 0.150074 0.949914 0.0500073
383 0.100034 0.899996 0.100043
384 0.150009 0.950057 0.150055
3 -3.47918e-05 -1.18533e-05 0.099995
403 0.199983 -7.83561e-06 0.10001
562 0.250049 0.849928 0.0499457
564 0.249995 0.849943 0.150049
582 0.250025 0.949966 0.049964
583 0.200091 0.89994 0.100064
584 0.250008 0.950021 0.149998
783 0.300021 0.899993 0.100015
581 0.200008 0.89989 2.02824e-05
781 0.300049 0.899991 8.34904e-05
803 0.400015 2.143e-06 0.10005
1003 0.50009 2.07679e-05 0.0999842
762 0.350055 0.849964 0.0500689
764 0.350048 0.849974 0.150072
782 0.350033 0.94998 0.0501154
784 0.349978 0.949915 0.150066
962 0.449986 0.85005 0.0500409
964 0.449979 0.849964 0.150032
982 0.449985 0.949968 0.0500497
983 0.400019 0.90002 0.100069
984 0.450055 0.949971 0.150063
981 0.4 0.899997 2.06305e-05
1203 0.599997 3.7682e-05 0.0999763
1162 0.549982 0.850068 0.0500588
1164 0.550001 0.849967 0.1501
1182 0.550023 0.949955 0.0500257
1183 0.500028 0.899996 0.100112
1184 0.550044 0.950026 0.150095
1362 0.650021 0.849992 0.0499748
1364 0.650061 0.85006 0.14999
1382 0.650049 0.94994 0.050047
1383 0.600015 0.899999 0.10004
1384 0.649941 0.949985 0.15002
1381 0.600071 0.900011 3.34516e-05
1403 0.699941 -4.9404e-05 0.100039
1603 0.799936 6.35749e-05 0.100012
1562 0.750088 0.850062 0.0500453
1564 0.749995 0.84993 0.149883
1581 0.700072 0.900047 -6.48438e-06
1582 0.750004 0.950011 0.0500323
1583 0.700017 0.900014 0.100019
1584 0.750015 0.950054 0.150003
1781 0.800012 0.900017 5.07967e-06
1783 0.800014 0.900001 0.10006
181 -1.33414e-05 0.90002 -1.92478e-05
183 -8.55659e-05 0.899962 0.100027
1762 0.849969 0.850027 0.0500302
1764 0.849973 0.849966 0.150027
1782 0.849948 0.949958 0.0500236
1784 0.850029 0.95001 0.149887
1962 0.949964 0.84997 0.0499946
1964 0.949923 0.850067 0.150028
1981 0.899962 0.899974 -2.63165e-06
1982 0.949916 0.949941 0.0499986
1983 0.900012 0.899974 0.0999958
1984 0.949946 0.949991 0.150084
6 0.0500031 0.0500061 0.249946
26 0.0500672 0.150075 0.249931
206 0.150062 0.0499923 0.249992
207 0.0999797 3.12688e-06 0.300083
225 0.10003 0.100034 0.199969
226 0.150064 0.150005 0.24997
227 0.100016 0.100002 0.299926
5 -5.30191e-05 3.02594e-05 0.200034
405 0.200045 1.55263e-05 0.200014
406 0.250027 0.0500648 0.250073
425 0.200081 0.100023 0.199937
426 0.250028 0.150125 0.25008
427 0.199985 0.100047 0.29995
625 0.299973 0.100056 0.200033
627 0.30009 0.10007 0.300026
606 0.350024 0.0499954 0.250069
626 0.350085 0.150042 0.250046
806 0.450058 0.0500312 0.250105
825 0.40008 0.0999804 0.200093
826 0.450091 0.150034 0.250107
827 0.400061 0.100028 0.300053
1027 0.500069 0.100027 0.300073
1006 0.549947 0.0500311 0.249903
1025 0.499932 0.100063 0.199995
1026 0.550073 0.149978 0.249982
1206 0.649937 0.0500463 0.249978
1225 0.599954 0.10003 0.199968
1226 0.649969 0.149899 0.249977
1227 0.599923 0.0999942 0.30008
1005 0.499901 4.67641e-05 0.199982
1406 0.749925 0.0499912 0.250038
1425 0.699982 0.0999682 0.20004
1426 0.75 0.149903 0.249979
1427 0.699961 0.100012 0.299995
1625 0.800036 0.0999506 0.199956
1627 0.799985 0.0999664 0.299995
1607 0.79995 9.44519e-06 0.299942
25 4.90783e-05 0.099981 0.199971
27 -8.83311e-06 0.100013 0.299962
7 -4.19028e-05 1.57925e-05 0.299973
1606 0.85007 0.0500703 0.250004
1626 0.84998 0.150018 0.250017
1805 0.89995 3.26669e-05 0.200003
1806 0.949916 0.0500572 0.25002
1807 0.899912 2.05131e-05 0.300043
1825 0.900022 0.100031 0.199981
1826 0.949965 0.149906 0.249979
1827 0.89994 0.100003 0.299996
46 0.0500666 0.249959 0.249932
245 0.100037 0.199967 0.199919
246 0.150009 0.250015 0.250068
247 0.100008 0.200004 0.299986
265 0.100015 0.300002 0.199985
267 0.0999708 0.30004 0.299952
47 -4.26062e-05 0.200026 0.299903
67 2.63526e-05 0.299974 0.29991
445 0.199976 0.200036 0.200013
446 0.249993 0.250045 0.249931
447 0.200034 0.200066 0.300003
465 0.199955 0.300042 0.200039
467 0.200041 0.300041 0.300056
645 0.300015 0.200032 0.200006
647 0.300016 0.200025 0.299959
665 0.29996 0.300004 0.199967
667 0.300012 0.300052 0.299963
646 0.350074 0.250031 0.250001
845 0.400041 0.199911 0.200021
846 0.449976 0.250097 0.249948
847 0.400089 0.2 0.299948
865 0.399944 0.299995 0.199977
867 0.400007 0.299996 0.300007
1065 0.500048 0.300059 0.200047
1045 0.499979 0.200058 0.200008
1046 0.550076 0.250051 0.249867
1047 0.500064 0.200101 0.299966
1067 0.499981 0.299979 0.299972
1245 0.600042 0.200009 0.199996
1246 0.650023 0.249983 0.249967
1247 0.600029 0.200056 0.299962
1265 0.600022 0.300048 0.199926
1267 0.600042 0.30005 0.299982
1445 0.699997 0.200013 0.200016
1446 0.750027 0.250032 0.25004
1447 0.699999 0.199987 0.300028
1465 0.70001 0.299978 0.199998
1467 0.700003 0.300009 0.300021
1645 0.799957 0.199932 0.200009
1647 0.799975 0.199992 0.299999
1665 0.799908 0.300049 0.200059
1667 0.799935 0.300034 0.300037
45 -1.92098e-05 0.199913 0.199917
65 9.63302e-05 0.299937 0.199937
1646 0.849924 0.249963 0.250119
1845 0.900027 0.199995 0.200015
1846 0.950053 0.250026 0.249903
1847 0.899962 0.200029 0.300027
1865 0.899908 0.300001 0.200071
1867 0.900026 0.29997 0.299983
66 0.0499363 0.350035 0.2499
86 0.0499224 0.450036 0.249996
266 0.149976 0.349985 0.250062
285 0.0999566 0.400039 0.200012
286 0.149946 0.450015 0.24996
287 0.0999486 0.400045 0.29997
85 -1.50107e-05 0.399988 0.199955
87 -6.66305e-05 0.399979 0.29995
305 0.0998819 0.499939 0.200036
466 0.249991 0.350035 0.250035
485 0.199936 0.399993 0.200015
486 0.249945 0.450012 0.250018
487 0.199939 0.400027 0.300016
685 0.299979 0.399989 0.20002
687 0.29997 0.400021 0.299999
505 0.199973 0.500011 0.20004
705 0.299973 0.499969 0.199946
707 0.300024 0.500033 0.300061
666 0.350047 0.350042 0.249981
686 0.349982 0.450048 0.250028
866 0.449908 0.349935 0.250047
885 0.4 0.400062 0.200054
886 0.44997 0.450053 0.250082
887 0.399986 0.400052 0.300072
905 0.399999 0.500069 0.199975
1085 0.499954 0.400038 0.200042
1087 0.499979 0.400044 0.299907
1066 0.549991 0.349942 0.249996
1086 0.54992 0.450097 0.249989
1266 0.649881 0.350023 0.250022
1285 0.599972 0.400068 0.199981
1286 0.649872 0.45013 0.250152
1287 0.599902 0.400062 0.300007
1307 0.599965 0.500012 0.300077
1466 0.749966 0.350079 0.250006
1485 0.699887 0.400031 0.20001
1486 0.749922 0.449994 0.250102
1487 0.699924 0.399937 0.300007
1685 0.799892 0.400055 0.200015
1687 0.799948 0.400058 0.300038
1505 0.699987 0.499997 0.200035
1705 0.80001 0.499997 0.200044
1666 0.849907 0.350142 0.25007
1686 0.849969 0.449939 0.250079
1866 0.950019 0.349969 0.249878
1885 0.899929 0.400001 0.199989
1886 0.949931 0.450012 0.249952
1887 0.89993 0.399912 0.300063
107 5.84532e-05 0.499978 0.300006
105 -0.000106889 0.49997 0.199974
1905 0.899929 0.500033 0.200064
1907 0.899943 0.5 0.3
307 0.100017 0.500058 0.300015
106 0.049922 0.549931 0.249925
126 0.0499922 0.650083 0.249983
306 0.149943 0.549976 0.249937
325 0.0999568 0.599963 0.200035
326 0.150003 0.650023 0.249985
327 0.0999608 0.599979 0.299966
506 0.250074 0.549956 0.249992
507 0.199938 0.49999 0.299964
525 0.200019 0.599949 0.200023
526 0.249959 0.650047 0.250112
527 0.199975 0.599936 0.299979
725 0.299992 0.600037 0.199998
727 0.29996 0.600004 0.299952
1107 0.499975 0.500058 0.299994
706 0.349949 0.550042 0.249956
726 0.349983 0.650127 0.250085
906 0.450028 0.550047 0.250015
907 0.39992 0.500096 0.3
925 0.399992 0.60007 0.200037
926 0.449991 0.650059 0.250056
927 0.399946 0.600074 0.299991
1127 0.500012 0.600047 0.299985
1125 0.500008 0.599992 0.199988
1105 0.499987 0.500009 0.200003
1106 0.550037 0.550068 0.25008
1126 0.550039 0.650096 0.250024
1305 0.599935 0.500057 0.199992
1306 0.649923 0.54998 0.249978
1325 0.6 0.600015 0.200034
1326 0.649995 0.650066 0.250028
1327 0.600025 0.600081 0.300019
1507 0.699974 0.500039 0.300077
1506 0.749891 0.549965 0.250034
1525 0.69999 0.599972 0.199992
1526 0.749908 0.650037 0.249986
1527 0.699993 0.600068 0.300009
1707 0.799897 0.500058 0.300066
1725 0.799903 0.600011 0.200064
1727 0.799985 0.600025 0.300007
125 -5.18491e-05 0.599934 0.200033
127 -1.40102e-05 0.599934 0.300009
1706 0.849983 0.549986 0.25009
1726 0.850007 0.650016 0.249998
1906 0.949946 0.549988 0.250029
1925 0.899969 0.599996 0.200022
1926 0.949988 0.64993 0.249982
1927 0.899987 0.60003 0.300084
146 0.0500248 0.749904 0.250044
167 -3.88741e-05 0.800026 0.299982
345 0.100048 0.700022 0.199966
346 0.150044 0.749963 0.250029
347 0.100026 0.699964 0.300023
365 0.099998 0.799996 0.20001
367 0.100012 0.800013 0.299963
545 0.200067 0.699973 0.199996
546 0.250047 0.750011 0.250107
547 0.200028 0.699979 0.300064
565 0.200012 0.799963 0.200049
567 0.199967 0.79999 0.300075
745 0.299962 0.699967 0.200085
747 0.299981 0.700004 0.300051
765 0.30002 0.8 0.20003
767 0.300067 0.800031 0.30002
746 0.350001 0.750015 0.250051
945 0.39995 0.699947 0.200038
946 0.449984 0.750018 0.249993
947 0.400021 0.700063 0.300056
965 0.400022 0.799976 0.199999
967 0.400013 0.800015 0.300054
1145 0.499977 0.69996 0.199995
1147 0.500073 0.69997 0.29995
1165 0.49999 0.799948 0.200079
1146 0.55005 0.750073 0.25005
1167 0.50004 0.800068 0.300022
1345 0.599965 0.700006 0.200051
1346 0.650036 0.749973 0.24997
1347 0.60003 0.700081 0.300066
1365 0.600047 0.800014 0.200002
1367 0.600052 0.800006 0.300105
1545 0.69999 0.700062 0.199999
1546 0.749961 0.750047 0.250038
1547 0.700025 0.699946 0.300009
1565 0.700004 0.800048 0.200009
1567 0.699963 0.799974 0.300036
1745 0.800004 0.700057 0.200064
1747 0.800027 0.699962 0.30004
1765 0.799968 0.799988 0.19998
1767 0.800033 0.800024 0.300118
145 -6.25656e-06 0.699961 0.20001
147 -3.56063e-05 0.69995 0.300036
165 -5.4187e-05 0.799939 0.200054
1746 0.849953 0.750053 0.250079
1945 0.899958 0.700021 0.199993
1946 0.950033 0.749934 0.25001
1947 0.900031 0.700041 0.300018
1965 0.899971 0.799995 0.200049
1967 0.900023 0.799982 0.300011
205 0.0999939 2.83672e-06 0.200057
166 0.0498951 0.85004 0.250038
186 0.0499267 0.95004 0.250052
366 0.150051 0.849966 0.25
385 0.100043 0.900006 0.200041
386 0.150019 0.950005 0.250017
387 0.100009 0.900027 0.299993
605 0.300042 3.91068e-05 0.20005
607 0.300031 -5.963e-06 0.300049
407 0.200036 -2.73636e-05 0.300004
566 0.249954 0.849925 0.249977
585 0.200016 0.900015 0.200021
586 0.250029 0.950002 0.250074
587 0.200023 0.900006 0.299983
785 0.299973 0.899999 0.200014
787 0.300024 0.899967 0.300049
805 0.400043 -2.0904e-05 0.200039
807 0.399991 -2.67559e-05 0.300029
1007 0.50003 -1.34713e-05 0.300011
766 0.350059 0.850055 0.249985
786 0.349945 0.949957 0.250065
966 0.450043 0.849953 0.250117
985 0.400007 0.899959 0.20004
986 0.449995 0.949941 0.250089
987 0.400099 0.900026 0.300077
1185 0.50003 0.899988 0.200058
1187 0.50005 0.900055 0.300032
1205 0.599985 1.73268e-05 0.200034
1207 0.600007 5.30257e-05 0.299963
1166 0.550051 0.849975 0.250032
1186 0.55005 0.950049 0.250036
1366 0.650036 0.850003 0.250031
1385 0.600024 0.900015 0.200045
1386 0.650027 0.949946 0.250032
1387 0.600036 0.899999 0.300007
1605 0.799998 3.58031e-05 0.200021
1405 0.700014 -4.07492e-05 0.200062
1407 0.699964 -8.16948e-05 0.300028
1566 0.750003 0.84996 0.250095
1585 0.700055 0.900018 0.199964
1586 0.749984 0.949975 0.250046
1587 0.699992 0.899982 0.300029
1785 0.79997 0.900049 0.20001
1787 0.800009 0.90003 0.299983
187 -2.16585e-05 0.900096 0.300101
185 2.25011e-05 0.899996 0.200043
1766 0.850041 0.850047 0.250113
1786 0.85012 0.95001 0.249985
1966 0.950014 0.850027 0.250016
1985 0.899902 0.89999 0.200008
1986 0.949867 0.950063 0.250012
1987 0.899982 0.900035 0.300016
8 0.0500152 0.0500545 0.350024
10 0.0500098 0.0500429 0.449843
28 0.0499236 0.150062 0.349904
29 -6.42204e-05 0.100053 0.399898
30 0.0499663 0.149997 0.44995
208 0.150032 0.049987 0.350063
210 0.149902 0.0500332 0.449995
228 0.150011 0.150056 0.349967
229 0.0999761 0.100073 0.399879
230 0.149947 0.149995 0.449995
211 0.0999212 -4.33671e-05 0.499912
9 -1.46524e-05 5.83598e-05 0.400016
231 0.0999682 0.0999934 0.499928
408 0.250008 0.0500334 0.349911
409 0.199996 -4.21581e-06 0.399976
410 0.249922 0.0499866 0.449936
428 0.249937 0.149993 0.349996
429 0.199987 0.100037 0.399991
430 0.249979 0.15007 0.449974
629 0.299986 0.100012 0.399992
431 0.200043 0.100038 0.499936
631 0.299992 0.0999785 0.499962
411 0.19997 5.11271e-05 0.499979
608 0.349999 0.0499379 0.350037
610 0.349976 0.0500282 0.450018
628 0.350081 0.150136 0.35
630 0.350026 0.150003 0.449923
808 0.450034 0.0499529 0.350041
810 0.450018 0.0499781 0.45009
828 0.450051 0.150025 0.349991
829 0.400053 0.0999844 0.39992
830 0.450057 0.150111 0.450029
1029 0.499988 0.099982 0.400082
1031 0.499991 0.100063 0.499999
1008 0.549982 0.0499665 0.349985
1010 0.550025 0.0499842 0.450052
1028 0.550007 0.150014 0.350025
1030 0.549969 0.149985 0.450001
1208 0.649937 0.0499354 0.34999
1209 0.6 9.31179e-06 0.399972
1210 0.649938 0.0500019 0.450029
1228 0.649966 0.149925 0.349972
1229 0.600016 0.0999636 0.400035
1230 0.650015 0.150027 0.450025
1011 0.500039 -1.65956e-05 0.500045
1408 0.749913 0.0500066 0.34995
1410 0.749949 0.0499385 0.449968
1428 0.750041 0.149952 0.350002
1429 0.699943 0.0999933 0.400012
1430 0.749865 0.150062 0.449993
1629 0.799896 0.0999746 0.399988
1609 0.799982 6.13304e-05 0.40001
1631 0.799923 0.0999202 0.499942
1608 0.849922 0.0500019 0.349978
1610 0.849967 0.0500524 0.450032
1628 0.849873 0.149947 0.349994
1630 0.849971 0.149996 0.449945
1808 0.949967 0.0498873 0.349943
1809 0.899969 3.91093e-05 0.399997
1810 0.949989 0.0500228 0.450052
1828 0.949881 0.150033 0.349965
1829 0.899962 0.0999743 0.399945
1830 0.949935 0.149918 0.449872
31 -4.60161e-05 0.0999773 0.499923
1831 0.899912 0.0999949 0.499935
11 -3.18313e-05 1.86437e-07 0.499926
48 0.0500279 0.250037 0.349957
50 0.0500548 0.250123 0.449946
248 0.150018 0.24999 0.349985
249 0.0999009 0.200043 0.399973
250 0.150027 0.25008 0.449972
269 0.100056 0.300077 0.399994
69 -2.07158e-05 0.300094 0.399965
71 5.90998e-05 0.300012 0.499947
271 0.10006 0.300033 0.500017
448 0.250042 0.250065 0.349946
449 0.200019 0.200044 0.40003
450 0.250037 0.250022 0.44991
469 0.200059 0.300039 0.400002
649 0.300045 0.199978 0.399944
669 0.299975 0.299996 0.399958
671 0.300025 0.299951 0.500004
451 0.200002 0.200039 0.499965
648 0.349965 0.250003 0.349909
650 0.349974 0.249979 0.449989
848 0.449961 0.250009 0.34996
849 0.40007 0.200019 0.399991
850 0.450062 0.250018 0.449955
869 0.399908 0.300075 0.399998
851 0.40003 0.200037 0.499902
871 0.399985 0.300008 0.499986
1071 0.500034 0.300029 0.499989
1048 0.55001 0.250055 0.349982
1049 0.500011 0.200005 0.399947
1050 0.550039 0.250039 0.449936
1069 0.499976 0.300004 0.399977
1248 0.649976 0.250081 0.349983
1249 0.599981 0.200011 0.399929
1250 0.649954 0.249959 0.44998
1269 0.599997 0.300121 0.400012
1051 0.500021 0.200075 0.50002
1251 0.599981 0.199984 0.499932
1271 0.600041 0.299983 0.500026
1448 0.750035 0.250016 0.350049
1449 0.699978 0.199988 0.399896
1450 0.749986 0.249957 0.450045
1469 0.699955 0.300044 0.400006
1649 0.799999 0.200004 0.400019
1669 0.799874 0.30004 0.40007
1651 0.799964 0.199952 0.500042
1471 0.700035 0.300025 0.500032
1671 0.799906 0.300068 0.500042
49 -4.90408e-05 0.200034 0.39998
1648 0.849887 0.250087 0.350029
1650 0.849957 0.250019 0.450082
1848 0.95001 0.249989 0.350037
1849 0.899937 0.200025 0.399983
1850 0.950075 0.250102 0.449954
1869 0.899977 0.300076 0.399942
1851 0.900006 0.199996 0.499976
1871 0.900033 0.300013 0.49995
68 0.0500054 0.350113 0.349973
70 0.0499842 0.349982 0.450009
88 0.0499419 0.450065 0.350037
90 0.0500186 0.450102 0.449951
268 0.149982 0.350034 0.350015
270 0.150026 0.350053 0.449937
288 0.150049 0.45005 0.349986
289 0.0999809 0.400037 0.399958
290 0.150047 0.450005 0.449916
468 0.249995 0.35 0.349999
470 0.250005 0.349984 0.449983
488 0.249976 0.450041 0.350008
489 0.199971 0.40002 0.399989
490 0.250083 0.449937 0.449977
689 0.300005 0.40007 0.399931
491 0.200014 0.400012 0.499962
668 0.350009 0.349987 0.349958
670 0.349881 0.35005 0.449954
688 0.349985 0.449997 0.350013
690 0.349992 0.449995 0.449978
868 0.449981 0.35009 0.349967
870 0.450024 0.350003 0.449989
888 0.449952 0.450046 0.349929
889 0.400015 0.400065 0.400008
890 0.450055 0.450126 0.450002
909 0.399958 0.500038 0.399966
1089 0.499962 0.400005 0.399943
1068 0.549897 0.350011 0.349913
1070 0.550044 0.349983 0.450027
1088 0.549863 0.450091 0.349975
1090 0.550014 0.450009 0.44991
1268 0.649966 0.350122 0.350047
1270 0.650012 0.350066 0.450039
1288 0.650002 0.450024 0.350006
1289 0.599874 0.400043 0.399914
1290 0.649997 0.449989 0.450074
1309 0.600052 0.50003 0.400056
1091 0.500013 0.400001 0.499879
1468 0.749945 0.350112 0.35001
1470 0.74995 0.35006 0.450054
1488 0.750002 0.450009 0.350004
1489 0.700016 0.400076 0.400029
1490 0.750051 0.450018 0.450004
1689 0.800026 0.400034 0.400034
1509 0.700004 0.499992 0.400001
1709 0.799985 0.500056 0.400052
1691 0.800056 0.400062 0.500009
89 -2.92384e-05 0.399996 0.400037
1668 0.849823 0.349965 0.350065
1670 0.850026 0.349974 0.450031
1688 0.850017 0.450136 0.350053
1690 0.850061 0.450004 0.450036
1868 0.95003 0.349983 0.349934
1870 0.950012 0.350005 0.450048
1888 0.950021 0.45003 0.349925
1889 0.900044 0.400028 0.400009
1890 0.950002 0.450085 0.450035
109 -5.16962e-05 0.499968 0.399942
1891 0.90005 0.400023 0.499939
1909 0.900007 0.500003 0.399972
309 0.100031 0.499997 0.399929
108 0.0499268 0.550017 0.350025
110 0.0499513 0.549885 0.449898
128 0.0499395 0.649966 0.350008
130 0.0500552 0.649989 0.450085
308 0.150002 0.550034 0.350029
310 0.149976 0.549972 0.449932
328 0.149989 0.650003 0.350017
329 0.0999977 0.600007 0.399965
330 0.150028 0.649979 0.450026
331 0.0999987 0.6 0.499944
509 0.20007 0.500114 0.399962
709 0.3 0.500002 0.400002
508 0.250014 0.550072 0.349976
510 0.250022 0.550094 0.449944
528 0.250053 0.650047 0.350002
529 0.200008 0.6001 0.400018
530 0.250066 0.650021 0.450072
729 0.299975 0.60003 0.39999
531 0.200002 0.599975 0.499981
731 0.299991 0.600028 0.500014
708 0.349984 0.550097 0.349997
710 0.349957 0.550048 0.450002
728 0.349947 0.650001 0.35005
730 0.34998 0.650014 0.450047
908 0.450032 0.550013 0.349916
910 0.45003 0.550019 0.449931
928 0.449993 0.649982 0.349964
929 0.400001 0.600016 0.399994
930 0.450036 0.650046 0.450083
911 0.400023 0.499998 0.499965
1129 0.499989 0.600011 0.399945
1108 0.550087 0.550057 0.349948
1109 0.499984 0.500096 0.399928
1110 0.549996 0.550034 0.449996
1128 0.549985 0.650121 0.350071
1130 0.549982 0.649975 0.449931
1308 0.65002 0.55006 0.35004
1310 0.650017 0.550011 0.450072
1328 0.650015 0.650043 0.350084
1329 0.600006 0.600033 0.400011
1330 0.650058 0.649913 0.450018
1508 0.749943 0.55013 0.350061
1510 0.749946 0.550053 0.450004
1528 0.750009 0.650025 0.350033
1529 0.699993 0.600024 0.400011
1530 0.750063 0.649941 0.449943
1729 0.800025 0.600048 0.399982
1531 0.7001 0.599983 0.500041
129 -6.84218e-05 0.599967 0.400041
1708 0.849934 0.55004 0.349992
1710 0.850038 0.549978 0.449982
1728 0.850063 0.650027 0.350025
1730 0.84998 0.649992 0.450047
1908 0.949998 0.549954 0.349937
1910 0.950037 0.549867 0.449992
1928 0.950045 0.650039 0.350079
1929 0.899998 0.600064 0.399999
1930 0.950019 0.650003 0.450031
1931 0.900062 0.600013 0.499942
148 0.0500275 0.749945 0.349892
150 0.0499648 0.749907 0.449994
169 -1.45806e-06 0.799972 0.399963
348 0.150006 0.749947 0.350055
349 0.0999619 0.699967 0.400031
350 0.150007 0.74999 0.450005
369 0.0999507 0.800005 0.400029
351 0.100057 0.699971 0.500015
149 3.71814e-05 0.699965 0.400051
171 -2.02595e-05 0.800021 0.49999
371 0.0999377 0.799973 0.499974
548 0.250037 0.750081 0.350032
549 0.20006 0.699995 0.400046
550 0.250075 0.750062 0.449993
569 0.200008 0.800007 0.400046
749 0.300022 0.70003 0.400006
769 0.300055 0.800003 0.400001
571 0.200014 0.799978 0.500077
551 0.20004 0.700013 0.500065
751 0.300089 0.700056 0.500021
748 0.349995 0.750009 0.349972
750 0.349997 0.749953 0.45002
948 0.450094 0.749996 0.349982
949 0.400014 0.699993 0.399971
950 0.450026 0.749981 0.44999
969 0.400019 0.79996 0.400039
1149 0.500007 0.700005 0.400026