ITEM: TIMESTEP
10000
ITEM: NUMBER OF ATOMS
54
ITEM: BOX BOUNDS xy xz yz pp pp pp
-8.0902422717344935e-02 8.4198267438661851e+00 -6.3394441292448853e-02
1.0163059726854051e-02 8.5108667743249828e+00 -5.7681237558738462e-02
5.2228693438651774e-03 8.4547771306561810e+00 6.1029834051973507e-02
ITEM: ATOMS id f_avePos[1] f_avePos[2] f_avePos[3]
1 -9.46359e-06 -0.000201268 6.73526e-05
2 0.166443 0.166531 0.166624
3 -0.000168293 -0.000221761 0.333295
4 0.166588 0.16676 0.499988
5 -6.1636e-05 -5.2735e-06 0.66687
6 0.16641 0.166755 0.833498
7 -0.00011605 0.333418 -4.15596e-06
8 0.166611 0.499919 0.166422
9 0.000169818 0.333517 0.333275
10 0.166646 0.500212 0.50029
11 0.000117028 0.333419 0.66661
12 0.166942 0.49987 0.833183
13 -0.000224744 0.6667 8.36884e-05
14 0.166847 0.833292 0.166896
15 1.12264e-05 0.66676 0.333016
16 0.166929 0.83308 0.500033
17 0.000176605 0.666708 0.666778
18 0.166645 0.833395 0.833338
19 0.333341 -0.000131314 -0.000152741
20 0.499847 0.166496 0.16646
21 0.333487 0.000121784 0.333353
22 0.500009 0.166546 0.50002
23 0.333414 1.85289e-05 0.666626
24 0.50014 0.166842 0.833316
25 0.333441 0.333411 -2.06249e-05
26 0.500094 0.500229 0.166463
27 0.333483 0.33348 0.333315
28 0.499752 0.500299 0.500436
29 0.333334 0.333201 0.666585
30 0.500032 0.500185 0.833327
31 0.333145 0.666616 4.28137e-05
32 0.499962 0.833182 0.166672
33 0.333272 0.666442 0.333207
34 0.499769 0.833091 0.499813
35 0.333297 0.666685 0.66687
36 0.499721 0.833108 0.833244
37 0.666682 -7.77882e-05 -3.95549e-05
38 0.833331 0.166675 0.166568
39 0.666555 0.000120492 0.333242
40 0.833633 0.166717 0.500166
41 0.666678 5.69018e-05 0.666821
42 0.833501 0.167026 0.833624
43 0.666502 0.333439 0.000110834
44 0.833483 0.499804 0.166455
45 0.666508 0.33331 0.333358
46 0.833634 0.499877 0.499908
47 0.666542 0.333349 0.666578
48 0.83334 0.499906 0.833148
49 0.66663 0.666795 -0.000102917
50 0.833042 0.833469 0.166869
51 0.666731 0.666483 0.333439
52 0.833411 0.83347 0.500007
53 0.666725 0.666883 0.666811
54 0.83339 0.833127 0.833215
